/*--------------------------------*- C++ -*----------------------------------*\
| =========                 |                                                 |
| \\      /  F ield         | OpenFOAM: The Open Source CFD Toolbox           |
|  \\    /   O peration     | Version:  2112                                  |
|   \\  /    A nd           | Website:  www.openfoam.com                      |
|    \\/     M anipulation  |                                                 |
\*---------------------------------------------------------------------------*/
FoamFile
{
    version     2.0;
    format      ascii;
    arch        "LSB;label=32;scalar=64";
    class       volScalarField;
    location    "2812";
    object      p;
}
// * * * * * * * * * * * * * * * * * * * * * * * * * * * * * * * * * * * * * //

dimensions      [1 -1 -2 0 0 0 0];

internalField   nonuniform List<scalar> 
296481
(
1.53079e-11
1.89603e-11
3.82131e-11
4.58492e-11
1.01348e-11
3.6032e-11
2.90205e-11
4.15935e-11
1.77775e-11
1.63002e-11
9.73126e-12
2.41986e-11
8.66135e-12
2.48711e-11
3.0602e-11
8.4843e-12
2.85329e-11
2.87701e-11
1.81911e-11
8.38312e-12
3.35374e-11
2.87594e-11
3.45649e-11
2.24459e-11
2.88177e-11
2.37571e-11
3.52872e-11
8.61989e-12
4.64022e-11
2.23656e-11
3.59032e-11
2.89997e-11
2.87233e-11
4.67851e-11
2.62293e-11
3.38889e-11
2.79528e-11
4.10271e-11
8.47718e-12
1.75813e-11
1.03005e-11
1.68569e-11
3.72272e-11
2.43959e-11
2.10422e-11
1.80074e-11
1.22963e-11
2.79999e-11
3.50215e-11
2.85009e-11
1.97628e-11
7.73044e-12
2.7593e-11
2.92186e-11
8.18254e-12
3.56412e-11
2.1663e-11
3.3654e-11
2.82597e-11
1.10297e-11
1.14038e-11
3.68314e-11
3.43585e-11
1.5669e-11
2.77905e-11
3.38037e-11
4.21561e-11
3.36217e-11
2.18023e-11
2.83254e-11
3.00856e-11
1.92922e-11
2.47564e-11
1.14619e-11
1.59942e-11
1.02243e-11
1.8495e-11
2.00628e-11
1.48408e-11
1.94974e-11
1.25187e-11
3.01941e-11
4.13341e-11
1.0862e-11
1.44531e-11
2.2041e-11
4.14261e-11
2.68167e-11
3.49744e-11
8.74769e-12
8.52226e-12
1.88383e-11
1.07093e-11
3.01424e-11
1.99558e-11
1.97558e-11
3.02631e-11
3.75596e-11
8.67906e-12
2.57995e-11
3.20442e-11
3.02943e-11
3.02464e-11
3.39613e-11
3.43428e-11
2.95172e-11
2.09731e-11
3.46812e-11
9.34248e-12
1.8258e-11
4.27342e-11
1.95922e-11
4.22539e-11
1.35841e-11
4.65512e-11
4.63069e-11
3.00322e-11
3.59798e-11
8.22759e-12
1.32506e-11
1.22457e-11
8.46735e-12
1.43268e-11
4.6675e-11
2.51751e-11
3.45261e-11
3.02531e-11
3.72299e-11
1.29666e-11
3.05519e-11
3.31165e-11
2.29684e-11
1.31529e-11
3.00391e-11
1.53363e-11
3.88578e-11
2.45553e-11
3.1033e-11
1.21883e-11
3.18402e-11
4.6719e-11
1.58591e-11
3.97063e-11
2.59368e-11
1.14272e-11
1.84038e-11
3.04331e-11
2.30261e-11
3.04965e-11
1.93032e-11
9.21943e-12
8.91578e-12
2.36028e-11
3.98174e-11
1.69203e-11
1.14702e-11
2.14547e-11
2.9468e-11
7.89657e-12
9.19559e-12
9.56682e-12
3.33279e-11
3.10968e-11
3.70586e-11
8.31427e-12
2.86535e-11
3.52762e-11
3.77319e-11
1.78453e-11
1.0419e-11
2.90543e-11
2.91858e-11
2.20643e-11
1.76443e-11
4.19789e-11
2.96412e-11
1.31943e-11
2.44469e-11
1.10713e-11
3.15729e-11
1.49795e-11
2.92104e-11
2.97747e-11
2.37775e-11
1.18352e-11
2.37252e-11
4.35833e-11
8.01716e-12
3.57933e-11
1.56025e-11
1.96184e-11
4.6526e-11
1.50719e-11
2.92678e-11
1.93607e-11
2.80915e-11
4.73542e-11
2.8995e-11
9.37545e-12
2.16234e-11
1.76683e-11
2.44441e-11
3.59685e-11
3.39418e-11
1.71672e-11
3.01463e-11
2.04236e-11
1.98624e-11
3.11943e-11
8.91373e-12
3.65495e-11
3.12026e-11
8.58441e-12
1.37153e-11
3.46967e-11
1.62818e-11
8.89026e-12
3.41016e-11
4.47195e-11
2.89731e-11
1.78386e-11
3.68645e-11
1.99746e-11
3.17303e-11
8.12658e-12
1.88509e-11
3.58217e-11
3.54019e-11
3.14772e-11
1.26027e-11
3.17172e-11
8.78698e-12
1.92916e-11
2.2222e-11
1.12928e-11
4.27406e-11
9.73838e-12
9.82881e-12
1.59273e-11
3.14798e-11
3.12317e-11
3.94892e-11
1.51239e-11
3.19301e-11
2.31927e-11
1.67779e-11
9.65621e-12
1.48184e-11
9.1559e-12
1.55423e-11
2.95755e-11
3.08494e-11
3.14568e-11
2.84455e-11
3.1383e-11
1.52244e-11
4.63029e-11
3.58005e-11
3.88238e-11
1.35559e-11
4.68599e-11
3.22181e-11
3.20878e-11
3.02615e-11
3.18279e-11
2.49967e-11
2.63137e-11
3.6524e-11
3.40029e-11
3.59136e-11
4.32148e-11
3.48249e-11
4.47332e-11
2.86054e-11
3.18727e-11
4.38553e-11
1.55733e-11
3.56009e-11
9.80819e-12
3.41512e-11
3.18919e-11
3.38676e-11
9.68771e-12
4.68554e-11
3.10808e-11
3.7132e-11
1.94354e-11
3.13377e-11
1.49868e-11
1.5021e-11
3.22285e-11
1.09723e-11
3.18411e-11
1.75717e-11
4.152e-11
1.8968e-11
8.84584e-12
3.1445e-11
2.1493e-11
3.12348e-11
4.13482e-11
4.57838e-11
3.61214e-11
3.46194e-11
3.13248e-11
3.01144e-11
4.32212e-11
2.20178e-11
1.25184e-11
2.90758e-11
2.49224e-11
2.42188e-11
1.35464e-11
2.88334e-11
2.5991e-11
3.17359e-11
8.46152e-12
3.13287e-11
3.14037e-11
3.18563e-11
4.35445e-11
1.12621e-11
3.1879e-11
2.74825e-11
1.98643e-11
9.91269e-12
3.58882e-11
4.58584e-11
4.2139e-11
3.27988e-11
1.46556e-11
3.38166e-11
2.69429e-11
3.86236e-11
3.4031e-11
1.97271e-11
2.01587e-11
3.48887e-11
3.19384e-11
1.11114e-11
3.15867e-11
3.40171e-11
1.99559e-11
3.49712e-11
2.1747e-11
3.72566e-11
3.6728e-11
3.96326e-11
2.83545e-11
3.18366e-11
1.34635e-11
4.29461e-11
9.8698e-12
3.17843e-11
9.77365e-12
3.21606e-11
3.18359e-11
3.43379e-11
1.50067e-11
1.08968e-11
3.76362e-11
9.5338e-12
1.32967e-11
3.23073e-11
1.4616e-11
3.81507e-11
3.20076e-11
2.20017e-11
2.26277e-11
3.80184e-11
1.16645e-11
3.62328e-11
1.70659e-11
2.46803e-11
8.5503e-12
3.51273e-11
1.90987e-11
4.34225e-11
1.47443e-11
3.65169e-11
8.10333e-12
2.62447e-11
2.0449e-11
3.20812e-11
2.8774e-11
1.22677e-11
8.95898e-12
2.01753e-11
1.08396e-11
3.26096e-11
1.28515e-11
3.57621e-11
3.26944e-11
1.29154e-11
2.98908e-11
2.88359e-11
1.47885e-11
2.47108e-11
9.48341e-12
3.55489e-11
2.95811e-11
9.40853e-12
1.20111e-11
1.04057e-11
3.74417e-11
3.52361e-11
3.27054e-11
3.3073e-11
2.37002e-11
3.30056e-11
3.28462e-11
3.17629e-11
1.88288e-11
2.34157e-11
2.27786e-11
4.08797e-11
3.66906e-11
3.3046e-11
1.3474e-11
4.14386e-11
3.30443e-11
2.95335e-11
3.13025e-11
3.26113e-11
3.2764e-11
1.00872e-11
8.95487e-12
3.58078e-11
1.17552e-11
3.51631e-11
3.26481e-11
2.7294e-11
3.26998e-11
2.67373e-11
3.22602e-11
2.24217e-11
1.46256e-11
1.89629e-11
1.99811e-11
1.03751e-11
1.54129e-11
9.19148e-12
1.72503e-11
2.06775e-11
3.27372e-11
1.19071e-11
3.26258e-11
3.74404e-11
8.66688e-12
2.02163e-11
3.26396e-11
3.33712e-11
3.40625e-11
1.8678e-11
8.81208e-12
2.02243e-11
3.37002e-11
2.40134e-11
1.62837e-11
9.98746e-12
3.31324e-11
1.48011e-11
8.55079e-12
2.00905e-11
3.87959e-11
3.31625e-11
3.27489e-11
2.60964e-11
3.68755e-11
4.63004e-11
1.35409e-11
3.05137e-11
4.63498e-11
1.21627e-11
1.9035e-11
8.43602e-12
2.67537e-11
3.40543e-11
1.55717e-11
3.52194e-11
2.57501e-11
1.18686e-11
1.35711e-11
3.18624e-11
3.48136e-11
3.61779e-11
3.39877e-11
3.20993e-11
3.50467e-11
2.92052e-11
1.45839e-11
1.17869e-11
3.27759e-11
3.28134e-11
4.42304e-11
1.10236e-11
3.59344e-11
3.15258e-11
3.34123e-11
1.31757e-11
1.09719e-11
4.11333e-11
3.48053e-11
8.507e-12
3.98664e-11
2.40664e-11
3.34405e-11
8.56603e-12
1.967e-11
3.05261e-11
1.32223e-11
1.11343e-11
1.47376e-11
8.90549e-12
1.44988e-11
1.14568e-11
3.11233e-11
3.38221e-11
3.69144e-11
3.4887e-11
1.0139e-11
3.385e-11
3.32659e-11
3.60792e-11
3.36005e-11
3.19037e-11
3.39791e-11
8.74637e-12
3.38791e-11
1.41232e-11
2.67727e-11
1.17357e-11
1.87547e-11
3.11255e-11
3.35403e-11
3.31397e-11
4.63018e-11
1.12296e-11
2.39979e-11
9.53784e-12
3.51687e-11
2.97555e-11
3.75551e-11
3.36923e-11
3.64762e-11
1.73832e-11
3.34651e-11
3.35803e-11
1.54989e-11
2.99312e-11
1.14433e-11
3.57556e-11
1.23264e-11
3.00449e-11
2.95944e-11
2.87993e-11
4.31239e-11
2.13576e-11
9.15666e-12
1.94574e-11
1.9277e-11
1.05254e-11
3.58717e-11
3.31482e-11
1.36862e-11
1.04418e-11
8.57633e-12
3.268e-11
1.71533e-11
3.3782e-11
9.236e-12
3.29529e-11
3.41916e-11
1.36372e-11
2.82051e-11
1.21416e-11
1.39415e-11
3.44893e-11
3.46446e-11
2.02984e-11
3.43929e-11
8.20296e-12
3.62437e-11
2.33823e-11
3.47178e-11
1.06907e-11
3.61489e-11
1.34122e-11
8.82345e-12
3.4578e-11
3.66278e-11
1.17909e-11
9.49108e-12
2.64615e-11
1.08713e-11
3.48639e-11
3.45001e-11
8.39392e-12
1.50372e-11
9.549e-12
2.58457e-11
8.41392e-12
1.11707e-11
3.38111e-11
2.8426e-11
3.36483e-11
3.48158e-11
7.75194e-12
1.97544e-11
4.64965e-11
4.18131e-11
1.74706e-11
2.13809e-11
3.45853e-11
3.19267e-11
3.4723e-11
3.67086e-11
3.39473e-11
1.26705e-11
2.61749e-11
1.16243e-11
3.39601e-11
1.68901e-11
3.09412e-11
4.73098e-11
4.00402e-11
3.38825e-11
3.48995e-11
1.95963e-11
4.54673e-11
3.71343e-11
9.88386e-12
2.87566e-11
2.82418e-11
1.44923e-11
9.12871e-12
3.01409e-11
1.76984e-11
1.93445e-11
1.31472e-11
3.56589e-11
2.72547e-11
3.64856e-11
3.577e-11
2.35322e-11
3.49607e-11
3.45172e-11
8.90254e-12
4.34879e-11
7.8701e-12
2.50541e-11
2.7424e-11
2.8396e-11
3.48603e-11
2.66695e-11
2.00389e-11
2.18449e-11
8.45679e-12
2.89201e-11
3.5835e-11
3.63348e-11
1.88828e-11
1.22389e-11
1.36904e-11
3.46312e-11
4.62519e-11
1.08052e-11
2.15454e-11
4.19097e-11
3.45284e-11
4.63944e-11
3.93175e-11
3.49361e-11
2.6008e-11
1.81629e-11
1.43596e-11
3.44731e-11
1.49038e-11
1.4354e-11
2.58858e-11
2.02922e-11
1.1848e-11
3.18425e-11
3.4215e-11
1.10526e-11
1.52122e-11
1.85962e-11
8.92515e-12
3.91439e-11
2.85662e-11
9.30083e-12
2.72422e-11
3.14681e-11
1.0225e-11
2.2913e-11
1.90707e-11
1.92261e-11
2.02001e-11
2.84152e-11
1.21123e-11
1.471e-11
2.94038e-11
3.42604e-11
1.45658e-11
2.00866e-11
1.47431e-11
2.43868e-11
1.47579e-11
9.35521e-12
1.17382e-11
4.62123e-11
3.46904e-11
4.30398e-11
9.06254e-12
1.468e-11
3.85246e-11
3.59167e-11
3.45359e-11
4.21454e-11
2.618e-11
3.20532e-11
3.16793e-11
3.32375e-11
2.76611e-11
2.22163e-11
3.67083e-11
2.98493e-11
3.78319e-11
3.62458e-11
3.29115e-11
4.65111e-11
1.95858e-11
2.9235e-11
1.78155e-11
2.75445e-11
2.27175e-11
2.99121e-11
4.60496e-11
1.6136e-11
1.69649e-11
3.10088e-11
2.48607e-11
1.16805e-11
1.45332e-11
1.02506e-11
1.76078e-11
2.76759e-11
2.74504e-11
3.00264e-11
2.85115e-11
2.12051e-11
2.73979e-11
1.2582e-11
1.50619e-11
2.74893e-11
2.72985e-11
2.10374e-11
2.83219e-11
1.46792e-11
2.07273e-11
1.3563e-11
1.43415e-11
2.87237e-11
1.54134e-11
1.25715e-11
3.37987e-11
3.16441e-11
3.53221e-11
1.23762e-11
8.52881e-12
2.74419e-11
8.91843e-12
1.95259e-11
2.99126e-11
8.45963e-12
3.51454e-11
2.75765e-11
1.62562e-11
4.31892e-11
2.66165e-11
2.05253e-11
2.74693e-11
3.45846e-11
3.02692e-11
8.58726e-12
8.9769e-12
1.99214e-11
2.7953e-11
9.25095e-12
2.74783e-11
1.31031e-11
9.80366e-12
1.64869e-11
1.20911e-11
4.30794e-11
2.75681e-11
4.09313e-11
1.96928e-11
1.54788e-11
1.96778e-11
1.27556e-11
3.28975e-11
2.375e-11
3.63033e-11
2.53855e-11
3.63858e-11
3.44518e-11
3.57016e-11
1.63219e-11
1.58067e-11
1.40741e-11
2.36587e-11
1.20833e-11
3.87692e-11
3.27358e-11
2.25452e-11
2.66099e-11
1.61905e-11
2.38973e-11
1.71873e-11
3.76556e-11
2.98347e-11
3.48733e-11
2.42947e-11
3.81543e-11
2.76217e-11
1.66593e-11
3.73258e-11
1.64041e-11
1.6514e-11
2.75253e-11
1.6719e-11
1.55012e-11
8.23862e-12
8.69931e-12
7.9253e-12
3.47208e-11
1.53127e-11
2.70754e-11
1.19055e-11
1.36042e-11
3.64284e-11
1.36177e-11
2.94517e-11
1.88465e-11
1.9598e-11
2.73498e-11
9.24138e-12
4.09712e-11
3.38859e-11
3.85576e-11
1.15924e-11
1.67772e-11
8.67113e-12
2.87977e-11
1.66152e-11
1.00641e-11
1.1909e-11
9.12866e-12
3.87065e-11
3.59012e-11
1.25867e-11
3.68427e-11
3.9061e-11
1.92623e-11
3.09622e-11
1.6514e-11
7.8369e-12
2.74883e-11
8.46512e-12
1.36288e-11
1.62541e-11
1.63886e-11
9.06772e-12
1.03733e-11
2.73846e-11
1.67853e-11
9.41745e-12
1.24089e-11
3.21447e-11
3.60347e-11
1.51812e-11
1.02971e-11
8.23999e-12
2.40411e-11
2.12961e-11
3.45423e-11
1.11301e-11
2.4962e-11
8.96537e-12
8.26149e-12
3.2684e-11
3.72712e-11
1.07893e-11
3.51668e-11
3.1345e-11
2.55445e-11
3.00931e-11
1.64729e-11
2.94566e-11
1.54358e-11
1.6726e-11
3.34912e-11
1.05116e-11
2.87067e-11
3.40402e-11
2.92054e-11
1.48262e-11
1.65358e-11
2.00371e-11
8.91608e-12
2.43499e-11
1.65351e-11
1.54505e-11
1.63205e-11
3.43156e-11
1.67131e-11
1.9211e-11
1.10499e-11
1.90786e-11
3.32139e-11
1.33256e-11
1.66446e-11
2.34728e-11
9.54833e-12
1.27231e-11
8.41564e-12
1.48024e-11
1.81825e-11
3.67431e-11
2.99864e-11
8.91183e-12
1.66026e-11
3.43391e-11
2.50526e-11
3.58564e-11
1.0087e-11
2.01323e-11
1.38014e-11
1.63875e-11
3.86035e-11
4.72341e-11
1.63452e-11
3.40111e-11
2.13335e-11
2.89582e-11
1.74201e-11
3.71027e-11
9.48693e-12
9.66442e-12
8.55956e-12
8.0794e-12
1.73141e-11
3.18404e-11
2.02694e-11
9.43756e-12
8.83863e-12
1.74823e-11
1.73494e-11
1.5023e-11
3.63973e-11
1.38123e-11
2.93912e-11
1.50667e-11
2.05014e-11
1.55261e-11
1.72921e-11
9.62019e-12
2.00566e-11
1.14426e-11
4.6388e-11
3.63367e-11
3.44263e-11
1.98923e-11
9.11416e-12
4.36158e-11
1.99638e-11
1.71449e-11
3.77851e-11
3.61618e-11
3.59746e-11
3.13434e-11
2.68772e-11
2.74609e-11
3.92784e-11
1.18381e-11
2.14024e-11
3.3863e-11
3.23126e-11
4.52339e-11
2.85937e-11
9.63782e-12
1.15917e-11
1.98111e-11
3.17372e-11
3.61381e-11
3.24756e-11
1.90602e-11
3.42055e-11
2.39323e-11
1.99902e-11
8.33013e-12
7.34828e-12
1.4269e-11
1.3413e-11
2.63636e-11
1.60137e-11
8.24878e-12
1.95356e-11
3.33228e-11
1.00589e-11
2.36064e-11
2.65727e-11
9.32184e-12
3.21282e-11
4.27387e-11
3.58066e-11
1.97073e-11
3.63811e-11
3.56909e-11
3.5795e-11
1.05478e-11
3.55466e-11
8.15026e-12
3.45403e-11
1.93882e-11
1.1746e-11
2.00314e-11
2.07453e-11
3.0446e-11
3.70289e-11
8.28125e-12
1.94534e-11
1.57941e-11
3.90692e-11
8.59519e-12
2.19338e-11
1.80343e-11
3.33639e-11
1.94462e-11
8.87103e-12
1.49448e-11
1.25661e-11
1.56221e-11
1.43742e-11
2.44038e-11
2.35216e-11
3.87689e-11
1.35727e-11
3.43814e-11
1.93752e-11
2.66912e-11
2.9338e-11
3.81369e-11
3.30537e-11
9.22762e-12
2.41697e-11
1.16438e-11
3.63554e-11
1.99705e-11
1.94915e-11
4.52901e-11
1.97419e-11
2.73381e-11
8.8903e-12
2.5879e-11
2.74335e-11
2.62794e-11
1.13788e-11
4.1033e-11
3.58428e-11
2.01018e-11
3.59753e-11
2.80268e-11
3.83621e-11
3.6447e-11
3.65945e-11
1.43613e-11
1.96218e-11
4.6723e-11
8.41195e-12
2.99662e-11
1.96507e-11
2.89431e-11
2.01803e-11
9.90293e-12
3.48236e-11
3.62907e-11
3.9359e-11
1.63518e-11
2.37126e-11
3.43913e-11
1.61605e-11
8.65483e-12
1.74381e-11
1.62329e-11
1.75352e-11
1.73633e-11
1.08086e-11
2.76151e-11
2.31555e-11
1.71825e-11
4.58934e-11
4.54129e-11
4.39193e-11
1.05759e-11
2.32045e-11
3.56092e-11
2.80016e-11
1.75078e-11
1.64255e-11
1.12725e-11
3.59437e-11
1.92336e-11
1.61828e-11
3.6102e-11
1.02947e-11
4.59875e-11
9.18194e-12
2.28896e-11
2.24032e-11
3.95583e-11
1.63676e-11
1.72813e-11
1.29968e-11
4.00183e-11
8.74632e-12
4.42564e-11
8.5876e-12
2.02454e-11
2.62843e-11
1.44144e-11
1.23439e-11
1.96192e-11
1.2859e-11
3.12686e-11
3.72316e-11
1.88877e-11
1.30024e-11
2.86842e-11
3.60617e-11
4.29364e-11
2.45008e-11
1.30023e-11
8.12463e-12
3.40246e-11
8.17504e-12
1.30443e-11
1.18675e-11
4.0808e-11
4.28688e-11
8.83918e-12
1.25929e-11
1.27753e-11
1.43409e-11
9.30969e-12
8.63849e-12
1.56037e-11
1.36632e-11
2.76672e-11
1.50983e-11
8.75208e-12
9.72802e-12
9.01773e-12
2.83659e-11
3.48179e-11
9.12263e-12
8.31504e-12
1.68726e-11
1.012e-11
8.85811e-12
3.10858e-11
2.1404e-11
1.21981e-11
8.72632e-12
4.41673e-11
3.4752e-11
1.79529e-11
9.15057e-12
3.77322e-11
2.34634e-11
2.00976e-11
1.41465e-11
1.87291e-11
1.16976e-11
3.46531e-11
1.62195e-11
8.72474e-12
4.71632e-11
7.92543e-12
1.41572e-11
4.06009e-11
3.61448e-11
1.66753e-11
1.27249e-11
1.69753e-11
3.18901e-11
8.58699e-12
3.42748e-11
9.82549e-12
4.22e-11
1.37458e-11
3.44604e-11
2.54238e-11
4.64874e-11
4.58048e-11
9.9359e-12
3.27257e-11
3.52277e-11
2.40925e-11
1.69859e-11
8.65797e-12
3.58029e-11
1.38615e-11
2.15728e-11
3.08474e-11
3.57887e-11
8.74531e-12
9.1219e-12
2.69294e-11
2.37014e-11
2.31676e-11
2.57687e-11
3.87349e-11
2.87755e-11
3.72181e-11
1.94904e-11
9.61208e-12
1.5123e-11
2.95131e-11
2.60831e-11
3.05088e-11
3.31531e-11
9.46091e-12
1.52381e-11
4.48973e-11
9.18589e-12
8.9915e-12
8.75923e-12
1.69406e-11
9.7633e-12
1.85686e-11
8.90614e-12
4.31386e-11
1.47331e-11
1.94249e-11
1.41506e-11
1.74254e-11
9.24432e-12
3.51094e-11
1.11114e-11
1.93868e-11
2.17586e-11
2.19713e-11
9.28965e-12
3.51287e-11
1.93372e-11
3.62605e-11
2.85728e-11
2.82632e-11
2.80574e-11
3.55535e-11
2.60489e-11
1.10706e-11
1.17073e-11
9.07908e-12
1.51145e-11
3.04506e-11
1.23085e-11
3.82179e-11
3.84304e-11
9.14164e-12
1.09078e-11
1.38461e-11
9.28775e-12
3.0154e-11
8.59101e-12
2.53334e-11
1.49699e-11
3.94568e-11
3.5763e-11
8.95717e-12
8.99283e-12
1.67369e-11
9.3078e-12
9.07016e-12
1.98125e-11
8.97663e-12
8.47609e-12
3.27357e-11
1.94677e-11
9.10884e-12
2.99958e-11
9.0154e-12
8.94986e-12
1.72646e-11
1.12367e-11
1.12885e-11
1.12275e-11
8.85031e-12
2.68574e-11
4.00155e-11
3.66909e-11
3.42876e-11
9.14024e-12
2.62113e-11
2.27849e-11
1.08958e-11
4.47404e-11
1.14236e-11
1.6193e-11
1.87857e-11
3.69164e-11
2.95228e-11
3.77943e-11
2.51781e-11
2.58783e-11
1.14766e-11
1.38302e-11
3.65238e-11
2.22999e-11
1.87461e-11
1.13166e-11
8.6926e-12
1.14332e-11
1.38024e-11
1.16408e-11
3.73688e-11
3.03709e-11
2.9053e-11
1.77655e-11
2.43426e-11
1.85429e-11
1.51889e-11
2.52571e-11
2.36464e-11
1.00606e-11
3.36179e-11
2.93052e-11
1.18908e-11
1.17097e-11
2.76547e-11
2.9248e-11
1.06206e-11
1.0035e-11
1.17216e-11
1.22707e-11
1.20898e-11
3.57422e-11
9.62913e-12
3.5972e-11
2.27131e-11
8.44508e-12
8.74689e-12
1.67395e-11
3.79191e-11
3.43262e-11
2.34452e-11
1.70034e-11
3.2219e-11
1.10062e-11
1.11443e-11
1.08448e-11
1.43046e-11
3.67107e-11
1.57423e-11
2.93707e-11
9.60426e-12
3.58619e-11
3.09011e-11
1.79046e-11
2.19129e-11
1.10428e-11
1.09363e-11
1.04092e-11
4.54237e-11
1.60113e-11
2.20921e-11
3.4176e-11
1.10216e-11
1.06903e-11
3.66036e-11
1.52182e-11
1.22878e-11
1.13198e-11
3.40936e-11
1.26064e-11
3.56073e-11
9.43836e-12
1.94884e-11
2.96914e-11
1.27587e-11
1.97655e-11
2.03476e-11
2.50666e-11
3.59957e-11
4.58297e-11
9.87082e-12
2.91044e-11
2.12277e-11
2.51649e-11
3.9141e-11
3.71768e-11
2.03103e-11
1.18549e-11
9.97547e-12
1.32784e-11
1.49638e-11
1.3032e-11
1.27493e-11
1.32263e-11
9.84481e-12
1.55763e-11
1.60564e-11
2.3984e-11
1.59186e-11
2.78506e-11
3.87561e-11
3.66107e-11
9.29639e-12
1.65715e-11
1.27329e-11
1.76403e-11
1.00608e-11
1.26899e-11
1.14002e-11
3.10939e-11
2.37355e-11
4.16801e-11
1.07133e-11
1.30231e-11
8.95116e-12
3.30948e-11
2.2653e-11
9.87145e-12
9.26628e-12
2.08045e-11
1.27172e-11
1.73775e-11
1.92726e-11
1.50339e-11
1.30507e-11
9.10805e-12
2.76918e-11
1.21042e-11
4.66148e-11
1.29964e-11
4.44426e-11
2.75268e-11
3.54029e-11
2.40117e-11
1.50537e-11
1.67856e-11
1.13822e-11
1.25957e-11
3.07356e-11
2.53668e-11
8.51478e-12
2.47886e-11
3.36101e-11
2.48018e-11
1.14742e-11
1.1084e-11
1.64724e-11
3.99387e-11
2.00635e-11
2.79414e-11
4.48002e-11
3.84706e-11
8.8506e-12
4.26622e-11
8.76222e-12
4.36963e-11
2.61922e-11
1.10877e-11
2.02035e-11
3.85202e-11
3.36788e-11
2.29232e-11
2.6493e-11
1.95489e-11
1.28749e-11
3.16809e-11
4.5759e-11
2.95439e-11
1.05752e-11
2.0679e-11
1.31016e-11
1.94825e-11
1.78784e-11
9.80416e-12
9.8733e-12
2.0273e-11
1.86046e-11
3.2589e-11
1.2571e-11
1.30461e-11
1.34464e-11
2.72865e-11
2.62697e-11
1.24178e-11
1.03843e-11
1.03888e-11
1.63472e-11
4.57854e-11
1.76594e-11
1.66442e-11
8.55838e-12
8.69676e-12
2.56043e-11
4.31215e-11
1.97479e-11
1.72815e-11
1.09128e-11
8.6457e-12
3.36055e-11
1.29129e-11
1.29869e-11
2.53178e-11
1.29546e-11
2.66713e-11
3.93065e-11
1.07472e-11
1.28025e-11
2.01595e-11
1.3455e-11
3.69184e-11
2.53605e-11
2.42216e-11
2.8734e-11
1.95656e-11
4.02683e-11
3.93923e-11
1.3224e-11
2.49651e-11
3.75942e-11
1.52523e-11
2.11932e-11
1.19667e-11
9.31354e-12
8.28898e-12
2.28727e-11
1.82185e-11
3.39012e-11
1.34576e-11
1.3272e-11
1.04043e-11
1.04294e-11
3.15507e-11
1.85079e-11
1.43204e-11
1.80578e-11
1.88406e-11
1.33231e-11
4.62868e-11
1.81781e-11
3.37665e-11
2.20758e-11
2.10842e-11
3.15022e-11
2.25479e-11
2.31666e-11
1.14193e-11
1.3652e-11
2.41042e-11
9.50326e-12
1.35196e-11
1.61439e-11
1.57786e-11
1.53013e-11
1.49831e-11
1.35072e-11
9.71021e-12
1.11916e-11
3.81655e-11
3.45312e-11
1.96056e-11
1.51335e-11
2.73508e-11
8.7896e-12
3.73677e-11
2.22148e-11
1.52255e-11
3.84314e-11
2.65793e-11
1.98423e-11
2.33366e-11
2.63622e-11
1.51237e-11
3.06816e-11
1.33375e-11
3.67455e-11
3.4261e-11
2.50985e-11
1.52735e-11
1.99214e-11
2.93506e-11
3.14983e-11
2.63101e-11
2.57422e-11
3.73812e-11
3.64786e-11
3.59016e-11
3.17317e-11
1.43214e-11
2.28642e-11
3.15652e-11
2.88324e-11
3.99071e-11
9.98503e-12
1.5252e-11
2.64513e-11
4.57141e-11
4.19576e-11
1.55337e-11
1.17969e-11
3.64546e-11
1.17099e-11
1.13647e-11
3.38788e-11
8.34031e-12
2.52791e-11
3.13673e-11
1.50901e-11
3.65514e-11
3.77229e-11
8.4939e-12
8.59086e-12
2.75803e-11
1.99369e-11
1.42683e-11
4.06604e-11
2.88888e-11
2.38497e-11
3.23132e-11
2.43186e-11
3.593e-11
1.86748e-11
3.98246e-11
1.08338e-11
3.49134e-11
2.33797e-11
1.63784e-11
1.48158e-11
3.0915e-11
1.48989e-11
3.40815e-11
4.30331e-11
3.21584e-11
1.61646e-11
1.78848e-11
4.45528e-11
3.45416e-11
1.50108e-11
1.75182e-11
3.9999e-11
1.17364e-11
9.88614e-12
1.27504e-11
2.34708e-11
1.34739e-11
2.62159e-11
2.21469e-11
2.4085e-11
1.51879e-11
1.81938e-11
2.26696e-11
1.99257e-11
1.55687e-11
1.25892e-11
9.23372e-12
1.74941e-11
1.53308e-11
8.71293e-12
1.23953e-11
8.43826e-12
1.2117e-11
2.74991e-11
1.22833e-11
1.6633e-11
4.1721e-11
4.12401e-11
1.20543e-11
2.3714e-11
1.25902e-11
1.24036e-11
1.3964e-11
3.48904e-11
2.59312e-11
2.8999e-11
4.12218e-11
1.73492e-11
2.70005e-11
2.19432e-11
1.75945e-11
2.66235e-11
8.09236e-12
4.37575e-11
3.09382e-11
1.0908e-11
2.43461e-11
1.7515e-11
1.80905e-11
3.33242e-11
1.18188e-11
4.34326e-11
1.78891e-11
1.79221e-11
4.6504e-11
2.92091e-11
3.46814e-11
2.87407e-11
1.98235e-11
1.90161e-11
2.34373e-11
2.2476e-11
2.17793e-11
1.4247e-11
1.83737e-11
2.74071e-11
1.65449e-11
1.8561e-11
4.29577e-11
2.22368e-11
2.875e-11
8.1198e-12
2.43644e-11
4.63888e-11
1.43112e-11
2.71057e-11
3.53139e-11
1.98537e-11
1.90168e-11
3.04998e-11
1.51706e-11
3.09395e-11
1.23528e-11
1.7274e-11
1.90523e-11
1.85532e-11
1.5205e-11
2.63294e-11
2.34482e-11
3.10133e-11
1.94276e-11
3.42855e-11
3.99666e-11
8.62594e-12
1.16167e-11
1.02869e-11
1.84787e-11
2.91255e-11
1.90135e-11
1.95523e-11
2.52283e-11
3.88139e-11
1.19357e-11
1.00411e-11
1.93195e-11
1.01912e-11
8.45855e-12
1.12459e-11
1.10061e-11
9.48514e-12
2.3448e-11
1.54268e-11
1.23041e-11
9.19199e-12
9.19966e-12
1.93024e-11
3.1916e-11
2.16157e-11
1.07299e-11
1.94679e-11
1.53593e-11
4.2801e-11
1.8951e-11
1.90502e-11
1.88286e-11
2.06971e-11
1.78698e-11
2.05134e-11
1.49671e-11
4.42068e-11
2.42353e-11
2.10834e-11
8.45039e-12
9.68345e-12
1.05105e-11
2.13529e-11
1.316e-11
2.1107e-11
2.10797e-11
2.13869e-11
3.58446e-11
2.06956e-11
2.32034e-11
2.1211e-11
2.47512e-11
8.57732e-12
9.0214e-12
9.37179e-12
1.19484e-11
1.0572e-11
1.23086e-11
2.9929e-11
2.11732e-11
1.96595e-11
3.05844e-11
9.01593e-12
3.25525e-11
1.75458e-11
9.30679e-12
3.06662e-11
1.24958e-11
4.5768e-11
2.12093e-11
1.95443e-11
1.50788e-11
8.21979e-12
2.09246e-11
2.03689e-11
2.26674e-11
1.21446e-11
2.32896e-11
2.27439e-11
1.49094e-11
8.64547e-12
3.70303e-11
2.32367e-11
9.07202e-12
2.2943e-11
1.3453e-11
8.89021e-12
2.28957e-11
1.05622e-11
2.28624e-11
1.55115e-11
9.2347e-12
9.65867e-12
8.79127e-12
1.58414e-11
1.10735e-11
1.08088e-11
2.22089e-11
1.53241e-11
1.74069e-11
1.49936e-11
2.22123e-11
8.43827e-12
2.03561e-11
1.21764e-11
2.6248e-11
2.19592e-11
4.11699e-11
1.07291e-11
1.82709e-11
2.00998e-11
3.44605e-11
4.57423e-11
1.75097e-11
2.44726e-11
2.20004e-11
2.19929e-11
2.839e-11
1.33205e-11
8.9438e-12
3.59188e-11
2.70726e-11
2.49788e-11
9.96785e-12
8.34842e-12
1.71414e-11
2.77341e-11
3.25536e-11
3.57075e-11
9.70768e-12
2.27706e-11
2.88127e-11
9.03651e-12
3.64637e-11
2.25319e-11
2.14902e-11
2.21017e-11
3.14108e-11
1.86551e-11
4.63126e-11
2.24728e-11
1.75825e-11
3.23544e-11
2.96797e-11
2.206e-11
3.09828e-11
1.86125e-11
2.21172e-11
3.54938e-11
1.14808e-11
3.6965e-11
2.21958e-11
9.59296e-12
1.3196e-11
4.57854e-11
1.75245e-11
8.89044e-12
2.12728e-11
1.96551e-11
1.80875e-11
2.21875e-11
3.20982e-11
2.76018e-11
3.0573e-11
2.87452e-11
9.47275e-12
3.6682e-11
3.21539e-11
2.48093e-11
1.80144e-11
1.16162e-11
1.81982e-11
2.02915e-11
1.81042e-11
1.89256e-11
3.94161e-11
4.14516e-11
2.36428e-11
1.13601e-11
1.66625e-11
2.35107e-11
1.21545e-11
2.36136e-11
2.35535e-11
1.59549e-11
1.49816e-11
1.86387e-11
2.38962e-11
9.79523e-12
1.65252e-11
2.37909e-11
4.38196e-11
2.83581e-11
3.90605e-11
2.39144e-11
2.01658e-11
2.37934e-11
2.89768e-11
7.98446e-12
2.38682e-11
8.50041e-12
8.76551e-12
1.27448e-11
1.92257e-11
1.24934e-11
2.43958e-11
4.28416e-11
1.25246e-11
2.15448e-11
2.39527e-11
4.56158e-11
3.17312e-11
3.7113e-11
2.37968e-11
1.3803e-11
3.62784e-11
1.62298e-11
9.55365e-12
3.59079e-11
8.42685e-12
3.41126e-11
2.10923e-11
2.60604e-11
3.72715e-11
2.46921e-11
3.28157e-11
2.44667e-11
3.50111e-11
1.04969e-11
8.97673e-12
9.03842e-12
1.29804e-11
2.4611e-11
1.41967e-11
1.15293e-11
1.98252e-11
3.53827e-11
1.36993e-11
1.73783e-11
1.75035e-11
2.41976e-11
9.19286e-12
2.43063e-11
1.79133e-11
3.44065e-11
3.50777e-11
1.55188e-11
3.04933e-11
3.34788e-11
3.5454e-11
2.65439e-11
2.04272e-11
3.31723e-11
2.89033e-11
3.08814e-11
2.425e-11
2.43615e-11
2.16432e-11
2.44215e-11
1.60695e-11
3.39839e-11
8.91718e-12
3.38733e-11
4.64215e-11
3.42934e-11
2.39432e-11
2.74912e-11
9.87546e-12
9.57674e-12
4.32608e-11
3.54025e-11
2.68582e-11
8.87112e-12
3.68348e-11
3.06593e-11
3.57821e-11
1.42143e-11
2.6889e-11
2.69164e-11
3.65073e-11
3.20522e-11
8.4192e-12
1.84356e-11
3.3346e-11
3.36786e-11
1.09456e-11
1.80211e-11
2.23145e-11
1.64345e-11
8.23084e-12
8.24341e-12
1.75404e-11
1.60824e-11
3.19458e-11
1.74766e-11
3.00059e-11
2.73454e-11
2.67001e-11
2.78111e-11
8.82422e-12
2.61173e-11
1.35879e-11
8.77674e-12
1.865e-11
1.37353e-11
1.44936e-11
1.11447e-11
9.05088e-12
2.10116e-11
2.28247e-11
3.677e-11
3.87729e-11
8.07403e-12
2.03975e-11
2.63769e-11
2.09144e-11
2.65192e-11
1.22532e-11
1.66679e-11
3.53133e-11
3.0243e-11
2.7094e-11
3.04921e-11
2.66971e-11
2.72631e-11
1.77904e-11
2.72642e-11
2.50879e-11
2.52958e-11
2.71477e-11
2.36256e-11
2.71018e-11
2.9177e-11
8.34893e-12
1.19243e-11
9.53352e-12
1.03035e-11
1.53896e-11
2.65325e-11
1.3449e-11
3.58139e-11
3.60742e-11
2.65031e-11
8.78576e-12
2.83228e-11
1.06189e-11
1.99026e-11
2.81493e-11
3.59451e-11
1.62736e-11
3.31314e-11
3.66397e-11
3.52522e-11
2.86503e-11
2.22662e-11
1.08455e-11
2.81951e-11
9.0594e-12
4.15823e-11
2.62501e-11
1.42135e-11
1.11722e-11
3.08891e-11
2.12492e-11
2.21148e-11
2.0449e-11
2.82632e-11
3.64371e-11
4.63412e-11
2.2134e-11
3.29904e-11
2.76997e-11
1.09411e-11
3.78799e-11
2.85853e-11
2.90008e-11
1.8213e-11
2.15145e-11
3.64544e-11
2.13389e-11
3.37215e-11
1.51628e-11
2.76252e-11
3.29335e-11
2.88368e-11
2.13269e-11
1.14714e-11
3.27673e-11
2.37253e-11
3.67188e-11
3.09845e-11
8.91406e-12
8.85783e-12
3.59578e-11
2.8222e-11
3.86567e-11
1.16212e-11
3.58952e-11
2.49537e-11
2.94188e-11
2.44037e-11
8.34918e-12
1.06476e-11
2.65324e-11
2.20334e-11
1.88543e-11
8.88092e-12
4.59747e-11
8.42732e-12
1.74128e-11
2.83437e-11
2.84815e-11
3.10865e-11
3.31143e-11
2.11424e-11
1.39096e-11
2.8613e-11
2.85381e-11
8.31238e-12
9.15293e-12
3.19079e-11
1.53811e-11
8.90232e-12
1.06318e-11
1.622e-11
1.22859e-11
2.85516e-11
2.77548e-11
1.17105e-11
2.33789e-11
1.11351e-11
2.78626e-11
8.99203e-12
1.81016e-11
2.27753e-11
3.41823e-11
3.62104e-11
2.54005e-11
3.71893e-11
8.70424e-12
2.23801e-11
8.42245e-12
2.222e-11
3.4413e-11
3.87587e-11
1.9781e-11
2.2244e-11
2.26309e-11
2.81191e-11
3.63931e-11
2.7998e-11
8.92262e-12
2.78769e-11
4.4183e-11
1.6475e-11
8.0141e-12
3.43342e-11
3.30033e-11
2.35303e-11
8.35061e-12
2.91022e-11
3.33628e-11
2.92251e-11
2.88637e-11
1.608e-11
3.57388e-11
1.44227e-11
1.58063e-11
1.39097e-11
1.49111e-11
1.50204e-11
8.61823e-12
1.64847e-11
1.12913e-11
1.27239e-11
1.30331e-11
3.77996e-11
3.00829e-11
1.64885e-11
1.48126e-11
1.70024e-11
9.47152e-12
2.5068e-11
4.65013e-11
3.38435e-11
3.56339e-11
1.50646e-11
3.67888e-11
2.14819e-11
3.52395e-11
2.66694e-11
4.52691e-11
2.9321e-11
8.97926e-12
3.30047e-11
2.94474e-11
4.58556e-11
2.59402e-11
3.71926e-11
3.4728e-11
2.67464e-11
3.44562e-11
2.98298e-11
3.31156e-11
3.30494e-11
1.32671e-11
4.31407e-11
4.62811e-11
1.71512e-11
3.39186e-11
3.50427e-11
2.94351e-11
3.38975e-11
3.47085e-11
3.00679e-11
3.71308e-11
1.63317e-11
3.16674e-11
3.29329e-11
3.00108e-11
2.13678e-11
2.92012e-11
3.65411e-11
2.94168e-11
2.52198e-11
3.35079e-11
2.93704e-11
9.99446e-12
1.833e-11
1.63118e-11
8.83967e-12
1.6062e-11
8.83031e-12
9.84279e-12
2.94666e-11
8.55753e-12
1.26772e-11
1.19821e-11
1.6811e-11
8.64912e-12
3.27743e-11
3.54485e-11
1.31282e-11
8.66891e-12
8.56852e-12
3.59077e-11
2.93655e-11
3.58591e-11
1.77364e-11
2.95115e-11
1.15863e-11
9.33472e-12
3.1267e-11
2.79905e-11
2.78291e-11
2.56324e-11
2.96997e-11
2.9765e-11
1.00837e-11
3.74384e-11
8.30065e-12
3.61939e-11
9.0329e-12
2.54908e-11
1.11829e-11
9.36261e-12
9.27214e-12
3.6378e-11
8.72685e-12
1.46405e-11
8.565e-12
1.12573e-11
1.14397e-11
2.04179e-11
3.48141e-11
1.03482e-11
2.53513e-11
2.03554e-11
2.11323e-11
2.52792e-11
1.74913e-11
2.51407e-11
4.33955e-11
1.03829e-11
2.50959e-11
1.86195e-11
2.90021e-11
2.52245e-11
2.16108e-11
1.67456e-11
1.96645e-11
2.21897e-11
3.09755e-11
3.60276e-11
1.94978e-11
1.50361e-11
1.67281e-11
1.12007e-11
3.15732e-11
2.31504e-11
1.15362e-11
4.64103e-11
7.9819e-12
2.29811e-11
4.60142e-11
2.5511e-11
2.63151e-11
1.77157e-11
2.52278e-11
2.80684e-11
1.96841e-11
3.10447e-11
2.51733e-11
2.54671e-11
2.93033e-11
2.56646e-11
3.14119e-11
2.86438e-11
3.46336e-11
1.46601e-11
3.58952e-11
2.48231e-11
3.97824e-11
2.35652e-11
2.58755e-11
2.52593e-11
2.57995e-11
1.68346e-11
1.65464e-11
1.6224e-11
8.67848e-12
1.44515e-11
2.29949e-11
2.57703e-11
2.64582e-11
1.90978e-11
2.58463e-11
1.63928e-11
2.57858e-11
2.90881e-11
3.85948e-11
2.56776e-11
2.83857e-11
2.56132e-11
1.8449e-11
3.71937e-11
3.44582e-11
3.19542e-11
2.29411e-11
1.76222e-11
2.57089e-11
3.75456e-11
1.749e-11
8.89199e-12
4.09309e-11
4.66506e-11
1.79463e-11
1.21484e-11
1.39949e-11
9.25383e-12
9.27214e-12
1.21662e-11
9.2031e-12
2.62803e-11
3.50115e-11
9.8432e-12
1.3211e-11
9.5721e-12
2.82259e-11
3.76162e-11
3.83015e-11
2.1037e-11
8.42149e-12
1.36189e-11
1.38208e-11
9.20912e-12
9.20008e-12
2.5696e-11
1.46159e-11
1.45516e-11
2.06635e-11
2.62284e-11
1.82517e-11
1.01062e-11
2.97172e-11
1.17404e-11
1.05481e-11
1.01673e-11
1.00031e-11
3.9686e-11
2.55994e-11
3.07173e-11
9.27839e-12
1.88619e-11
3.22046e-11
8.30717e-12
2.72923e-11
3.58429e-11
4.38861e-11
1.82175e-11
3.05403e-11