/*--------------------------------*- C++ -*----------------------------------*\
| =========                 |                                                 |
| \\      /  F ield         | OpenFOAM: The Open Source CFD Toolbox           |
|  \\    /   O peration     | Version:  2112                                  |
|   \\  /    A nd           | Website:  www.openfoam.com                      |
|    \\/     M anipulation  |                                                 |
\*---------------------------------------------------------------------------*/
FoamFile
{
    version     2.0;
    format      ascii;
    arch        "LSB;label=32;scalar=64";
    class       volScalarField;
    location    "2812";
    object      p_rgh;
}
// * * * * * * * * * * * * * * * * * * * * * * * * * * * * * * * * * * * * * //

dimensions      [1 -1 -2 0 0 0 0];

internalField   nonuniform List<scalar> 
296481
(
6.44248e-13
-1.04941e-12
-1.66826e-12
-5.98563e-13
-8.87505e-13
-2.10467e-12
-1.5422e-12
1.77805e-12
-2.58718e-13
-4.28012e-13
3.93682e-13
-2.25755e-13
3.08541e-13
6.14977e-13
-1.6372e-12
-4.05164e-13
-1.83159e-12
-1.67178e-12
-1.25419e-12
-2.03557e-13
-1.89354e-13
-1.73679e-12
1.11836e-12
-4.66372e-13
-1.67687e-12
-1.39098e-12
-1.97252e-12
2.31371e-13
1.08184e-12
-1.27162e-12
-1.92977e-12
-1.55143e-12
-1.6876e-12
-1.1308e-12
-1.32522e-12
8.64854e-13
-1.5956e-12
1.40913e-12
-1.99887e-13
-1.02874e-12
-6.84001e-13
-6.16013e-13
-2.10097e-12
4.59606e-13
-1.24023e-12
-1.1838e-12
-1.03254e-12
-1.64626e-12
-2.18253e-12
-1.51836e-12
-1.43553e-12
-1.08796e-12
1.1714e-12
-5.81993e-13
-5.70939e-13
1.62627e-12
-1.33443e-12
-1.92997e-12
-1.75917e-12
-8.90308e-13
-8.89028e-13
-2.12915e-12
-1.29415e-12
-8.7494e-13
-1.81216e-12
-1.97368e-12
6.34514e-14
-1.90717e-12
-1.35003e-12
-1.55725e-12
-2.02457e-12
-1.46769e-13
1.03104e-12
-7.40261e-13
-7.57954e-13
-7.00225e-13
-1.27096e-12
-2.75966e-13
-1.0668e-12
-7.78204e-13
4.1833e-13
-1.73983e-12
6.96393e-13
-8.19874e-13
-1.01281e-12
6.07813e-13
7.62372e-13
1.02391e-12
-1.94383e-12
6.48926e-13
1.87121e-13
-7.04533e-13
-8.89442e-13
-1.80506e-12
8.96285e-13
3.91114e-13
-1.75361e-12
-2.00577e-12
-7.4414e-13
-1.64095e-12
-1.91693e-12
-1.79198e-12
-1.50931e-12
-1.89971e-12
-1.8497e-12
-1.7818e-12
-1.2655e-12
-1.54736e-13
4.18043e-13
-7.77878e-13
1.15278e-12
-8.15825e-13
-1.02405e-12
-7.21889e-13
-3.08897e-13
1.49185e-12
-1.60738e-12
-2.08811e-12
-4.98338e-13
-2.12579e-13
4.35375e-13
-4.34963e-13
4.68859e-14
-2.89906e-14
-1.25822e-12
-1.80424e-12
-2.01712e-12
-2.0162e-12
-8.20581e-13
-1.89147e-12
-2.16887e-12
-1.31234e-12
6.01681e-13
-1.64791e-12
-1.08346e-12
1.35452e-12
-1.42796e-12
-1.11865e-12
-5.94298e-13
-1.88883e-12
5.25121e-14
-1.04778e-12
-7.77122e-14
-7.36153e-13
-1.96485e-14
-1.15908e-12
-1.68292e-12
-1.32081e-12
-1.77939e-12
4.8292e-13
-8.35938e-13
-7.01906e-14
-1.09147e-12
6.98577e-13
5.8694e-13
4.98385e-13
1.37567e-13
-1.70826e-12
-5.59955e-13
-4.49167e-13
-3.93921e-13
-1.86699e-12
-1.66442e-12
1.19649e-12
-1.10884e-13
-1.5148e-12
-1.95911e-12
-1.93881e-12
-1.21217e-12
-5.16832e-13
-1.82855e-12
-1.83573e-12
-9.74915e-13
-3.69905e-13
1.69353e-12
-1.52491e-12
-1.00842e-12
4.26723e-13
4.88743e-13
-7.80897e-13
9.81364e-15
-1.80681e-12
-1.65233e-12
-1.53273e-12
-8.96461e-13
-1.27305e-12
1.28476e-12
-6.22968e-13
-2.27221e-12
6.60954e-13
8.15536e-13
-6.17264e-13
-1.02313e-12
-1.49398e-12
-1.02632e-12
-1.59529e-12
-1.51987e-12
-1.8801e-12
-6.47346e-13
8.68498e-13
-8.35518e-13
-1.30022e-12
-1.84102e-12
-1.81957e-12
-1.10384e-12
-1.47313e-12
-1.28192e-12
-1.31978e-12
-1.96e-12
3.475e-13
1.59546e-13
-1.88354e-12
-7.07181e-13
6.03671e-13
-2.18423e-12
6.48447e-13
-2.93344e-13
-1.98851e-12
-2.91724e-13
-2.37232e-13
-8.00877e-13
-1.9815e-12
-5.82394e-13
-1.88103e-12
2.93409e-13
-1.17727e-12
-1.89729e-12
-1.91166e-12
-1.77813e-12
5.51656e-13
-1.9016e-12
4.8843e-13
5.25442e-13
-1.36932e-12
-7.37177e-13
1.0498e-12
-6.37065e-13
3.89691e-13
1.33596e-13
-1.75853e-12
-1.99991e-12
1.7448e-12
-8.14824e-13
-1.78894e-12
-1.40703e-12
-7.28308e-13
4.04411e-13
-3.04982e-14
4.27899e-13
7.05681e-13
2.74837e-13
-1.9228e-12
9.3856e-13
-1.63864e-12
-1.96341e-12
-1.16585e-12
1.77435e-12
-1.84196e-12
-1.12973e-12
-6.36844e-13
-1.57737e-13
-2.0071e-12
-1.74371e-12
-1.83423e-12
-1.8242e-12
-1.41779e-12
-1.11153e-13
-6.02005e-13
-1.28751e-12
4.99053e-13
6.7389e-13
-2.06703e-12
-1.14604e-12
-1.57308e-12
-1.85592e-12
8.05864e-13
4.21101e-13
-1.98266e-12
4.75719e-13
1.44657e-12
-1.89293e-12
7.36913e-13
-6.3213e-13
-4.15031e-14
-1.86932e-12
7.46868e-13
-1.25111e-12
-1.46981e-12
1.42555e-13
-1.09655e-12
-2.04755e-12
-5.3837e-13
-1.95609e-12
-2.19651e-13
-1.67252e-12
9.38829e-13
6.67179e-13
-1.89908e-12
-1.22673e-12
-1.7978e-12
1.44846e-12
1.25909e-12
-2.20443e-12
-1.91476e-12
-1.70574e-12
-1.94085e-12
1.18826e-12
-1.32149e-12
-7.9409e-13
-1.09406e-12
-1.53344e-12
-1.33071e-12
-2.37654e-13
-1.68604e-12
-1.52089e-12
-1.90977e-12
-1.08573e-12
-2.033e-12
-1.9428e-12
-1.90796e-12
-1.04346e-12
-3.7372e-13
-1.89927e-12
5.01063e-13
4.34213e-13
-8.23056e-13
7.11853e-13
1.36025e-12
-7.54471e-13
-1.84505e-12
-5.93054e-13
-1.98779e-12
-1.58035e-12
9.75576e-13
4.81938e-13
-8.20543e-13
4.18129e-13
-1.92192e-12
8.29439e-13
-1.04476e-12
-2.0702e-12
1.1417e-12
-4.2651e-13
-1.89637e-12
-3.1889e-13
-6.51949e-13
1.53742e-12
-1.80589e-12
-1.47238e-12
-1.99994e-12
-9.62939e-13
1.40066e-12
-5.11834e-14
-1.93112e-12
-7.35401e-13
-1.97658e-12
-1.81495e-12
1.30502e-12
-1.01664e-12
-6.44824e-13
-2.03778e-12
-8.06366e-13
-8.14475e-17
-1.80344e-12
-8.00012e-13
1.26711e-12
-1.69826e-12
-1.25202e-12
-1.42099e-12
9.81206e-13
3.07948e-13
-2.07423e-12
-9.57126e-13
-1.60798e-12
-6.48728e-13
-1.9053e-12
-4.6366e-13
1.04345e-12
-2.55387e-13
-2.11061e-12
-4.64107e-13
-1.48601e-12
-1.36236e-12
-1.71474e-12
2.67952e-13
-8.38297e-13
-2.77666e-13
-1.18993e-12
-9.33356e-13
-1.96725e-12
5.42208e-13
-2.05611e-12
-1.96499e-12
-7.90363e-13
-1.7709e-12
8.46131e-13
-1.35898e-13
5.0483e-13
-8.08229e-13
-1.63738e-12
-1.87705e-12
-7.51206e-13
-8.63925e-13
-8.59848e-13
-2.04729e-12
-1.86515e-12
-1.77402e-12
-2.02686e-12
-1.15437e-12
-1.97639e-12
-1.89217e-12
-1.83464e-12
9.03038e-13
-1.18473e-12
-8.51653e-13
-3.94372e-13
-2.10389e-12
-1.90604e-12
3.36619e-13
1.46059e-13
-1.82179e-12
-1.6474e-12
-1.91658e-12
-1.95737e-12
-1.8915e-12
-8.03738e-13
1.20319e-13
-2.22534e-12
-8.52258e-13
-2.08505e-12
-1.94539e-12
4.48269e-13
-1.89585e-12
1.2323e-12
-5.72338e-13
-1.44569e-12
3.16691e-13
-1.25967e-12
-1.34427e-13
-9.31728e-13
2.41833e-13
-6.46821e-13
9.3342e-14
-9.73861e-13
-1.94042e-12
-9.27962e-13
-1.86773e-12
-2.07776e-12
-7.70248e-13
3.82821e-13
-1.93822e-12
-1.61135e-12
-1.83604e-12
5.31412e-13
-6.88188e-13
8.62983e-13
-1.69803e-12
-1.375e-12
-9.28877e-13
-7.8375e-13
-1.66323e-12
-9.16561e-13
3.59035e-13
1.80245e-13
-4.81858e-13
-7.14665e-13
-1.87058e-12
8.94612e-13
-2.17166e-12
1.51758e-12
2.29368e-13
-1.60125e-12
1.11982e-12
-1.03507e-12
-6.94384e-13
-3.66666e-13
4.47091e-13
-1.87585e-12
-1.22851e-12
-1.9133e-12
1.29443e-12
-9.3554e-13
-6.80392e-13
-1.88751e-12
-1.97669e-12
-1.94354e-12
-1.90873e-12
-1.84903e-12
-1.97207e-12
-1.05846e-12
-9.55938e-13
3.16503e-13
-1.81001e-12
-1.94199e-12
1.81397e-12
-2.53367e-13
-2.18403e-12
-1.65316e-12
-2.09473e-12
5.63261e-13
-7.03041e-13
-8.67144e-13
-1.77398e-12
3.64815e-13
-1.8226e-12
-4.88634e-13
-1.9597e-12
1.2713e-13
-4.44249e-13
-1.89383e-12
-2.576e-13
5.79851e-14
4.40824e-13
-2.69453e-13
-1.14759e-12
-1.61253e-14
-1.78213e-12
-2.11354e-12
-2.16661e-12
-1.92094e-12
-7.558e-13
-1.96312e-12
-2.10373e-12
-2.18273e-12
-1.94071e-12
-1.90604e-12
-1.89281e-12
-1.26372e-13
-2.10643e-12
-9.86863e-13
1.88194e-13
-1.03548e-12
6.52457e-13
5.33959e-13
-1.89259e-12
-1.87073e-12
1.83606e-12
-7.85797e-13
-1.4165e-12
2.98472e-13
-2.05853e-12
8.29044e-13
-1.76485e-12
-1.85079e-12
-2.13278e-12
-1.21243e-12
-1.97041e-12
-1.97149e-12
4.38769e-13
1.10808e-12
1.46751e-13
-2.05225e-12
-1.0379e-12
-1.53568e-12
-1.74182e-12
-1.44295e-12
1.83398e-12
8.87742e-13
-5.61816e-13
-1.0783e-12
9.87606e-13
-9.68641e-13
-2.06763e-12
-1.79275e-12
2.06731e-13
-8.59293e-13
-6.58291e-13
8.1547e-13
6.67294e-13
-1.87955e-12
-5.56917e-13
-1.79707e-12
-1.96777e-12
-7.89093e-13
-1.66447e-12
-3.68959e-13
-7.79566e-13
1.25422e-12
1.1074e-12
-1.03044e-12
-1.83863e-12
-8.20011e-13
-2.06992e-12
-1.44142e-12
-1.85428e-12
5.2442e-13
-2.01611e-12
-9.8222e-13
-7.6446e-13
-1.91773e-12
-2.02614e-12
-8.31995e-13
-7.32735e-13
-1.20648e-12
-8.43029e-13
-1.83194e-12
-2.02289e-12
-6.47143e-13
6.32013e-13
4.54288e-13
-1.39305e-12
-7.22104e-13
-9.63107e-13
-1.84208e-12
7.97496e-13
-1.86958e-12
-1.64859e-12
-7.5691e-13
-4.86974e-13
8.94021e-13
-3.54116e-13
-5.50866e-13
1.26217e-13
-2.2425e-12
-1.72364e-12
-1.88124e-12
1.09157e-12
-1.78701e-12
-9.15649e-13
-2.37386e-13
-7.57852e-13
-2.01335e-12
2.63999e-13
-5.53887e-13
-1.5646e-12
1.80095e-12
-1.81904e-12
-1.84606e-12
8.55004e-13
-7.69995e-14
-2.01832e-12
5.55031e-13
-1.61331e-12
-1.57488e-12
3.74689e-13
-6.46919e-13
-1.79363e-12
-3.81505e-13
-1.12801e-12
-2.96903e-13
-2.04997e-12
-1.46235e-12
-2.07766e-12
-1.91181e-12
8.09219e-13
-1.75931e-12
-2.04948e-12
2.32496e-13
1.74022e-12
-7.53912e-13
-1.54807e-12
-3.01541e-13
-1.83095e-13
-2.00262e-12
-1.79413e-12
-1.29682e-12
-1.06268e-12
-5.01423e-13
-6.67028e-13
7.86096e-13
-2.02727e-12
1.45918e-13
4.59307e-13
3.42293e-13
-2.03485e-12
1.26937e-12
5.24028e-13
2.57876e-13
1.07467e-12
-1.56461e-12
1.14025e-12
-1.19853e-12
-1.86485e-12
-1.60027e-12
-1.20069e-12
-9.28961e-13
-1.92329e-12
-1.00826e-12
-1.40115e-13
-1.40514e-12
-3.66852e-13
-1.10603e-12
8.49698e-13
-2.00559e-12
-2.04567e-13
-3.50303e-13
-9.55613e-13
-1.69955e-13
-2.12588e-13
-1.56706e-12
-6.90052e-13
-1.51285e-12
-1.97424e-12
-7.47534e-13
-1.40206e-12
6.26415e-13
-2.70533e-13
-7.39761e-13
3.85287e-13
-9.557e-13
-1.09954e-12
-1.77393e-12
-1.91024e-12
-1.01249e-12
4.44965e-13
-1.11638e-12
9.97572e-13
-1.22343e-12
-9.07256e-13
-8.78764e-13
-2.76865e-13
-1.90701e-12
1.15486e-12
-4.02492e-13
-1.15202e-12
1.1641e-12
-2.21817e-12
-1.92206e-12
2.99888e-13
-1.50236e-12
-1.81787e-12
-1.67189e-12
-1.88678e-12
-1.46735e-12
-1.4875e-12
-2.10042e-12
-1.7936e-12
-2.03664e-12
-2.03193e-12
-1.82941e-12
-4.45451e-13
8.63278e-13
-5.07337e-13
7.37909e-13
-1.73033e-12
-1.34032e-12
6.05491e-13
4.53727e-13
5.09997e-13
-1.22756e-12
-1.01847e-12
4.66879e-13
-7.90406e-13
5.17745e-13
-7.90287e-13
-9.01517e-13
-1.5136e-12
-1.61711e-12
-1.64017e-12
-1.70994e-12
-1.26325e-12
-1.65404e-12
-8.96493e-13
-9.80545e-13
-1.77758e-12
-1.88318e-12
-1.38705e-12
-1.42802e-12
-9.23941e-13
-1.2321e-12
5.50525e-13
5.7538e-13
-1.68794e-12
-9.97922e-13
-4.54344e-13
-1.73397e-12
8.81297e-13
-1.9503e-12
-5.73637e-13
2.09021e-13
-1.85445e-12
3.22411e-13
-1.02065e-12
-1.58432e-12
-9.00264e-13
3.47412e-13
-1.88995e-12
-1.13587e-12
1.07376e-12
-1.41453e-12
6.53624e-13
-1.6876e-12
-1.97235e-12
8.28369e-13
4.7234e-13
2.56016e-13
-1.17259e-12
-1.50672e-12
-6.02607e-13
-1.69362e-12
-1.04197e-12
-8.55258e-13
-1.16117e-12
5.39129e-13
-1.49311e-12
-1.45418e-12
1.03032e-12
7.23228e-13
-1.15615e-12
-1.47844e-12
-1.02251e-12
-1.86613e-12
4.95358e-13
-2.77965e-13
-1.53846e-12
-2.03835e-12
-1.97425e-12
-1.98812e-12
-1.0216e-12
-1.16168e-12
-1.10177e-12
-8.93525e-13
4.84691e-13
4.73034e-13
-1.78687e-12
-1.2231e-12
-1.4716e-12
-1.16583e-12
-1.41536e-12
-1.10315e-12
-1.99014e-12
-1.74944e-12
-1.87233e-12
8.5849e-13
-1.79712e-12
5.43701e-13
-9.92268e-13
-1.80246e-12
4.46852e-13
-1.21107e-12
4.01659e-13
-1.18707e-12
-9.85282e-13
-2.97149e-13
-6.46212e-13
-6.15148e-13
-1.86942e-12
-1.16452e-12
4.7061e-13
-6.15802e-13
-9.28009e-13
-2.08636e-12
-8.9351e-13
-1.61155e-12
-9.40792e-13
-1.09591e-12
1.01012e-12
-8.06163e-13
-5.19003e-13
-1.95277e-12
-7.36604e-14
-7.79661e-13
-1.15083e-12
-8.19702e-13
-1.88118e-12
-1.16767e-12
-8.48827e-13
-1.70619e-13
3.24942e-13
4.45814e-13
-1.80461e-12
-1.0609e-12
-1.81795e-12
-1.261e-12
-2.30117e-13
-1.75336e-12
-9.59789e-13
-7.06078e-13
-1.68935e-12
3.6716e-15
-9.07256e-13
-1.11758e-12
-1.11937e-12
-4.89434e-13
-9.51502e-13
7.89434e-14
-1.2192e-12
-6.26397e-13
-9.09026e-13
1.45637e-12
-2.15066e-12
-2.82935e-13
-7.78746e-13
-8.5771e-13
-1.36962e-12
-1.24867e-12
-2.00063e-12
5.30796e-13
-1.28555e-12
-8.13863e-13
-6.93457e-13
-1.82546e-12
-2.03107e-12
-5.16188e-13
-2.22033e-12
-1.94075e-12
4.47055e-13
8.72325e-13
-5.48023e-13
8.00482e-13
-1.05173e-12
-9.81599e-13
1.5271e-12
4.02337e-13
-1.73847e-12
-1.03161e-13
-1.73918e-12
-8.86979e-13
-1.08839e-12
3.2135e-13
-2.67069e-13
-1.11909e-12
7.55544e-13
-1.1744e-12
-1.09847e-12
-1.84022e-12
-1.03233e-12
-1.3101e-12
-4.77476e-13
6.58476e-13
-1.91489e-12
-9.16324e-13
-1.03258e-12
-1.58653e-12
-7.14799e-13
-8.10858e-13
-5.35606e-13
-1.04912e-12
-1.08296e-12
-2.14075e-12
-3.84461e-13
-8.56189e-13
-1.13334e-12
-1.90185e-12
-1.25092e-12
-2.25974e-12
-7.8175e-13
-1.19744e-12
-9.29246e-13
-1.12216e-12
9.72292e-13
-1.32982e-12
-1.15272e-12
-1.93317e-12
2.17358e-13
-1.1331e-12
-1.08687e-12
-1.36886e-12
-8.07165e-13
-7.91944e-13
-5.68649e-13
-6.80912e-13
-1.05186e-12
-1.78812e-12
-1.25502e-12
2.49737e-13
-2.4227e-13
-1.01774e-12
-1.04499e-12
-1.11304e-12
-2.05709e-12
-9.81547e-13
1.33833e-12
-9.83723e-13
-1.26771e-12
-1.15863e-12
-1.19829e-12
-6.03636e-13
-1.2079e-12
-1.49241e-13
9.88677e-13
-2.25304e-12
-1.84662e-12
-1.20518e-12
4.40502e-13
9.73569e-13
-1.20489e-12
-1.00934e-12
1.3457e-12
-2.2226e-12
-2.07241e-12
-1.87297e-12
6.76076e-13
2.93217e-13
-1.00922e-13
-9.15909e-13
7.18966e-13
-1.91635e-12
-7.09244e-13
1.82976e-12
-1.81064e-12
-7.75259e-13
2.51622e-13
-1.13981e-12
-1.76088e-12
-2.11259e-12
3.13074e-13
-8.95417e-13
-1.87052e-12
8.5639e-13
-1.08206e-12
4.84927e-13
-1.1672e-12
-8.27879e-13
-1.06053e-12
3.03121e-14
-3.63992e-13
-4.9366e-13
-1.24198e-12
-1.75544e-12
-9.17576e-13
-1.50424e-12
-1.4177e-12
-8.25342e-13
-1.86276e-12
1.09697e-12
9.22817e-13
-1.22136e-12
-2.08537e-12
-1.94117e-12
-2.21245e-12
-8.87683e-13
-1.81732e-12
-9.95037e-13
-1.96222e-12
-1.12345e-12
-4.74836e-13
-1.10211e-12
-1.23464e-12
-1.79835e-12
-2.07008e-12
-7.72721e-13
-1.25029e-12
-1.11544e-12
-2.22997e-13
-9.50329e-13
-1.46897e-12
-1.14659e-12
-1.27183e-12
-1.16117e-12
-5.31082e-13
-5.02297e-13
-8.74441e-13
-9.18943e-13
-9.66233e-13
1.7284e-13
-1.45886e-12
4.95795e-13
-8.72777e-13
-1.83589e-12
-1.3587e-12
-1.05206e-12
-1.54196e-12
3.01559e-13
-1.9446e-12
-5.63968e-13
-1.23774e-12
2.71208e-15
-1.70272e-12
-1.48324e-12
-1.04826e-12
1.73119e-12
-1.38726e-12
-5.06109e-13
-6.39281e-13
-1.55844e-12
-1.68116e-12
1.04378e-12
-6.69917e-14
-4.61072e-13
-2.45151e-12
-1.11236e-12
-2.29253e-12
-1.30945e-12
4.87375e-13
-3.01962e-13
-2.28231e-12
-7.52001e-13
-1.17609e-12
-4.46718e-13
-5.6905e-13
-1.72227e-12
-1.33833e-12
1.34288e-12
-9.63671e-13
-8.08476e-13
-2.14283e-12
-1.95516e-12
7.08756e-13
1.07306e-14
-1.59034e-12
5.6656e-13
1.96725e-13
5.77126e-13
-1.24885e-12
-1.16546e-14
-1.121e-12
-1.17702e-12
-8.8922e-13
8.05955e-13
-1.21709e-12
-1.10608e-12
4.07914e-13
6.32276e-13
5.77612e-13
3.54076e-13
-1.16544e-12
-1.98481e-12
-1.62368e-12
-1.23218e-12
-1.11562e-12
-8.65003e-13
-2.22777e-12
-7.82054e-13
-5.37192e-13
-1.94833e-12
-8.03524e-13
9.44685e-13
-5.54944e-13
-1.27419e-12
5.06182e-13
1.03174e-12
-1.18385e-12
-9.42729e-13
-9.38953e-13
-8.67859e-13
4.08392e-13
9.11616e-13
5.40748e-13
-1.29729e-12
-1.34351e-12
-1.08194e-12
-9.79772e-13
-1.16983e-12
-6.97421e-13
1.19427e-12
-1.90895e-12
-1.23834e-12
-9.8405e-13
-1.49749e-12
-2.05876e-12
1.6454e-12
-1.48163e-12
-8.92062e-13
-7.66425e-13
-1.97404e-12
-9.84623e-13
-9.33138e-13
-2.58465e-13
-3.48057e-13
9.73925e-13
6.48401e-14
-1.09479e-12
-9.52728e-13
-8.71574e-13
-7.93149e-13
2.39708e-13
-9.71811e-13
-4.66877e-13
-1.43907e-12
2.65204e-13
6.03105e-13
-8.76696e-13
-6.84335e-13
-3.6501e-13
-2.00068e-12
-6.69842e-13
-4.71363e-13
-1.14607e-12
-8.10934e-13
-4.94339e-13
1.41028e-12
-1.30942e-12
-1.04589e-12
-6.31228e-13
7.37992e-13
-1.99581e-12
-1.16486e-12
-1.9389e-13
-2.08392e-12
1.02295e-12
-1.34308e-12
-1.08266e-12
-9.67291e-13
-8.79924e-13
7.77791e-13
-1.217e-12
-5.49245e-13
-1.49081e-12
-7.54479e-13
-2.03288e-13
7.67236e-13
-2.18693e-12
-8.01593e-13
-9.55237e-13
-1.2909e-12
-1.79034e-12
-6.10513e-13
-1.91116e-12
-8.43114e-13
4.36326e-14
2.49553e-14
9.51745e-13
-1.34681e-12
2.14623e-14
1.81912e-12
-4.34401e-13
-1.87713e-12
-2.05699e-12
-8.3577e-13
-1.08334e-12
-6.7334e-13
-2.02257e-12
-9.84291e-13
-1.08642e-12
-1.84767e-12
-2.01637e-12
-7.07575e-13
-6.48568e-13
-1.55411e-12
-1.26038e-12
-1.45829e-12
-1.59127e-12
-1.9386e-12
-1.71875e-12
-2.06245e-12
-1.16359e-12
-6.18878e-13
-8.63253e-13
-1.49512e-12
-1.00132e-12
-1.90726e-12
-1.997e-12
-7.42953e-13
-1.13797e-12
-1.05911e-12
-7.95137e-13
-7.64712e-13
5.21033e-13
-9.50182e-13
4.10448e-13
-4.77379e-13
-9.25788e-13
1.26774e-12
-1.03603e-12
6.76139e-13
-9.63039e-13
-1.15877e-12
-6.91625e-13
-1.97782e-12
-5.95803e-13
-7.10542e-13
-1.1655e-12
-1.49475e-12
-7.09159e-13
4.89065e-14
-1.22278e-12
1.24471e-12
-1.02776e-12
-1.64959e-12
-1.76143e-12
-1.69525e-12
-1.7311e-12
-8.37933e-13
-8.64087e-13
-7.50147e-13
-9.74796e-13
-1.6628e-12
-8.98802e-13
1.35337e-12
-1.85074e-12
-8.25325e-13
-2.45826e-13
-7.9711e-13
-8.11181e-13
-1.69847e-12
-4.22104e-13
-1.48184e-12
-9.62716e-13
-1.94209e-12
-2.35049e-12
-7.32705e-13
-7.189e-13
6.32498e-13
-8.12091e-13
-6.07784e-13
-1.04624e-12
-7.3408e-13
-9.42466e-14
-1.28472e-12
8.22922e-13
-6.81807e-13
-1.77369e-12
-8.30576e-13
-7.84809e-13
-1.07773e-12
-9.18663e-13
-8.77737e-13
-7.86907e-13
-5.64969e-13
-1.68583e-12
-1.59997e-12
-2.13811e-12
-8.1771e-13
-7.61087e-13
-1.69292e-12
9.52667e-13
-8.97223e-13
-8.82459e-13
-9.65944e-13
-7.16394e-14
-8.28253e-13
-1.89687e-12
-1.63665e-12
4.76586e-13
-6.54388e-13
1.13296e-12
1.97943e-13
-4.66567e-13
-1.39838e-12
-8.51411e-13
-1.24293e-12
-9.07791e-13
-5.8222e-13
-8.87528e-13
-2.61906e-13
-8.9554e-13
-1.90619e-12
-1.64079e-12
4.334e-13
2.87296e-13
-1.5718e-12
-1.2312e-12
-1.00793e-12
-1.31901e-12
-5.77323e-13
-9.35127e-13
1.15245e-13
-1.72375e-12
-9.98439e-13
-8.47521e-13
1.2834e-12
-1.63762e-12
-7.64256e-13
-9.13195e-13
-9.42494e-13
-8.13358e-13
-9.53798e-13
-1.97378e-12
-6.89793e-13
-2.23264e-12
-1.07152e-12
-6.58092e-13
-6.63531e-13
5.79741e-13
-1.73294e-12
-2.20716e-12
-1.36532e-12
-1.09299e-12
-1.82362e-12
-8.56848e-13
-9.03807e-13
-9.02723e-13
-1.1818e-12
-1.96643e-12
-8.51888e-13
-1.7964e-12
-8.4739e-13
-2.09776e-12
-1.85125e-12
7.5954e-13
-1.26619e-12
-9.28878e-13
-8.65581e-13
-8.8017e-13
1.8584e-12
1.53973e-13
-9.21026e-13
-1.94587e-12
-8.61461e-13
-8.70468e-13
-2.09547e-12
-1.47111e-13
2.04385e-13
-9.01235e-13
-1.96718e-12
-9.15035e-13
-1.83806e-12
-8.92545e-13
-1.08276e-12
3.59222e-13
-1.06308e-12
-1.25354e-12
-3.6914e-13
4.96982e-13
-2.11439e-12
7.03697e-13
-7.60111e-13
1.43632e-12
-8.86849e-14
-1.62869e-12
-1.0518e-12
1.16445e-12
-1.17907e-12
-7.30055e-13
-7.63881e-13
-9.74424e-13
-1.27632e-13
-8.715e-13
-8.68837e-13
2.84447e-14
-6.89836e-13
-1.22192e-12
-8.02407e-13
-1.53264e-12
-1.03283e-12
-1.62069e-12
-1.14567e-12
-6.50396e-13
-6.51276e-13
6.12184e-13
-1.04307e-12
-8.98284e-13
-8.61702e-13
-8.82109e-13
-8.19404e-13
-5.34403e-13
-1.12585e-12
-6.69521e-13
-8.19885e-13
-9.59415e-13
-4.78497e-13
-1.84665e-12
-1.3517e-12
-8.41886e-13
3.59139e-13
-1.26039e-12
-8.8835e-13
-1.13043e-12
-1.34846e-12
6.10985e-13
-1.07391e-12
-8.80497e-13
-1.69452e-12
-1.05134e-12
-1.4045e-12
-9.65828e-13
2.71128e-13
-5.56635e-13
-1.96023e-12
-1.35615e-12
-1.12644e-12
-1.19573e-12
-6.31309e-13
-1.05853e-12
-1.8551e-12
-1.6765e-12
-6.07821e-13
-1.5322e-12
-2.02096e-12
-1.27837e-12
4.48038e-13
-7.60221e-13
-1.05757e-12
-6.08016e-13
-6.47993e-13
-1.46261e-12
-4.35876e-13
-8.5852e-13
-4.95892e-13
1.01086e-12
4.16301e-13
1.47227e-12
1.30998e-12
9.07015e-14
-1.16567e-12
-4.23511e-13
2.20298e-13
-1.40712e-12
-7.63146e-13
-9.36193e-13
-9.86258e-13
1.41889e-12
1.62464e-12
-1.86057e-12
-7.87998e-13
-1.42498e-12
-9.35552e-13
3.14047e-13
-9.88222e-13
-8.36825e-13
-8.5493e-13
-9.60217e-13
-1.11212e-12
1.50091e-12
-5.74269e-13
-9.04699e-13
6.2222e-13
-1.61108e-12
-1.44531e-12
-9.87415e-13
-9.73041e-13
2.88881e-13
-4.88064e-13
6.46197e-13
-1.04073e-12
-1.39591e-12
-3.10442e-13
-5.70364e-13
-1.41135e-12
1.78828e-12
-1.44113e-12
-1.25312e-12
-9.15037e-13
-6.59225e-13
1.58984e-12
-8.79071e-13
-9.08662e-13
-1.33566e-12
-9.13602e-13
-1.49414e-12
-4.50431e-13
4.93433e-13
-1.15537e-12
-6.77905e-13
-1.07432e-12
-2.20296e-12
-1.82105e-12
7.8935e-13
-1.73861e-12
-1.15198e-12
-1.42041e-12
1.16316e-12
-9.19252e-13
-1.66375e-13
-1.89525e-12
4.35566e-13
-1.17712e-12
-9.76379e-13
-5.85624e-13
-8.56486e-13
-1.35495e-12
-1.15928e-12
-1.91982e-12
-7.49034e-13
-9.67124e-13
-8.28755e-13
-7.74233e-13
-1.86063e-12
-1.22543e-12
-1.05238e-12
-1.28488e-12
-1.13724e-12
-9.39609e-13
1.16317e-12
-1.33593e-12
-2.05614e-12
-1.49322e-12
-1.33311e-12
-1.41958e-12
-1.45757e-12
-1.42344e-12
-9.37928e-13
3.28692e-13
-1.19176e-12
-8.59531e-13
-9.93048e-13
-1.00664e-12
-1.09363e-12
-9.91794e-13
-1.0488e-12
-6.3661e-13
-2.80458e-13
-8.42719e-13
1.07434e-12
1.09448e-12
-1.2227e-12
-1.15969e-13
-1.72567e-12
5.16983e-13
-2.04479e-12
-1.49403e-12
-1.10401e-12
-6.08676e-13
-1.5044e-12
-1.39938e-12
-1.2941e-12
-1.65624e-12
-1.06875e-12
-1.64762e-12
-1.05073e-12
-1.70899e-12
-1.96321e-12
-1.66213e-12
-9.26379e-13
-1.13233e-12
-1.90938e-12
-1.44221e-12
-1.46329e-12
-1.46622e-12
1.51285e-12
-2.15666e-12
-6.25233e-13
8.20516e-13
-4.07848e-13
-1.20259e-12
-1.45454e-13
-9.82954e-13
-4.82662e-13
-7.45461e-13
-1.00877e-12
-1.51516e-12
1.39673e-12
1.71942e-12
-1.23919e-12
4.74537e-13
1.26464e-12
3.69752e-13
-2.98078e-13
-1.98743e-12
-4.35061e-13
-1.65725e-12
-1.94672e-12
-1.0785e-12
-1.16961e-12
-1.98245e-12
-5.36537e-13
3.78919e-13
-1.61004e-12
7.96677e-13
-9.90131e-13
1.64277e-12
-1.58631e-12
-1.45668e-12
-1.64356e-12
-1.29229e-12
-1.84471e-12
-1.05375e-12
9.56584e-13
-8.93558e-13
-1.9403e-12
-1.57616e-12
-1.08614e-12
-9.30776e-13
-1.69953e-12
-1.08434e-12
-2.00725e-12
1.76103e-12
-1.82998e-12
4.64503e-13
-6.86191e-13
3.45408e-13
-3.23009e-14
-3.59234e-13
-2.26574e-13
1.73995e-12
-9.88559e-13
-6.93323e-13
-4.80638e-13
-1.47357e-12
6.2924e-13
-1.60155e-12
-1.40851e-12
-1.64937e-12
-9.94024e-13
-1.03582e-12
-1.1865e-12
-1.05432e-12
-9.99778e-13
-8.35468e-13
-8.31492e-13
-1.23252e-12
-1.14035e-12
4.93172e-13
-9.32679e-13
-2.9945e-13
-9.42509e-13
9.24105e-13
-8.81379e-13
-1.05055e-12
8.14393e-13
1.64558e-12
-9.85843e-13
-1.40488e-12
4.31519e-13
-8.49773e-13
6.33784e-13
1.06291e-12
-1.39417e-12
-1.67781e-12
-2.55857e-13
-1.24875e-12
-1.59929e-12
-1.18997e-12
-1.02912e-12
-1.40535e-12
-5.6721e-13
-4.67739e-13
-3.80533e-14
-8.05414e-13
-1.40003e-12
-1.1946e-12
-1.11092e-12
-1.562e-12
-7.27958e-13
1.43152e-12
-1.14451e-12
-1.03237e-12
-5.48509e-13
-1.9251e-12
-1.90549e-12
-1.42149e-12
-9.34249e-13
-1.19389e-12
-1.26481e-12
9.94827e-13
-1.35503e-12
-8.86908e-13
-1.30413e-12
-1.54328e-12
-1.10942e-12
-1.16555e-12
1.64506e-12
8.10583e-13
-1.42986e-12
-4.02263e-13
1.84099e-13
1.72842e-12
-1.09177e-12
-1.66317e-12
-1.98771e-12
-1.09696e-12
-1.08574e-12
-1.73832e-12
-1.01276e-12
-1.77389e-12
-8.72217e-13
-9.63513e-13
-1.01452e-12
-1.31943e-12
5.85667e-13
-1.62817e-12
-1.29266e-12
-1.9345e-12
-2.66624e-15
-2.03102e-12
-1.91134e-12
-5.21279e-13
-8.4051e-13
-7.95848e-13
-1.443e-12
-1.65825e-12
-1.24776e-12
-9.05869e-13
-1.43909e-12
3.09623e-13
-9.77746e-13
-6.77469e-13
-1.24076e-12
-7.87961e-13
-5.18807e-13
-8.74656e-13
-8.98881e-13
-6.0324e-13
-1.4045e-12
-9.233e-13
-1.02774e-12
3.04723e-13
-8.41741e-13
-1.21044e-12
-1.87371e-12
-1.52239e-12
4.35435e-13
-1.14661e-12
6.34971e-13
1.75482e-12
-1.26574e-12
-1.25689e-12
-1.33296e-12
-1.32816e-12
-1.13175e-12
-1.56174e-12
1.70106e-13
1.79501e-12
-1.26099e-12
-1.24981e-12
-9.65884e-13
-8.25107e-13
-8.32901e-13
8.76623e-13
5.89204e-13
-1.16014e-12
-1.14686e-12
-1.05476e-12
-1.85559e-12
-1.19541e-12
-1.41056e-12
-1.27149e-12
2.49352e-13
1.70751e-13
-6.88959e-13
-6.77536e-13
-7.19542e-13
1.16201e-14
-8.25861e-13
-1.5529e-12
-1.19867e-12
-1.11846e-12
-1.66579e-12
-7.64244e-13
1.17011e-12
-1.32834e-12
4.61114e-13
-1.98852e-12
-9.4698e-13
1.20876e-12
-1.19574e-12
-1.92791e-13
-9.4774e-13
-8.24802e-13
-1.37008e-12
-1.14133e-12
-1.47583e-12
-2.7365e-13
-1.26037e-12
-1.31768e-12
5.947e-13
-8.68912e-13
-2.13801e-12
-1.30004e-12
4.43267e-13
-1.48311e-12
4.36686e-13
5.03666e-14
-1.56937e-12
4.57974e-13
-1.65981e-12
-8.19037e-13
-7.70583e-13
-7.05142e-13
-7.19557e-13
-1.18311e-12
3.30977e-13
-8.57688e-13
-1.31012e-12
-9.8384e-13
-9.65271e-13
-1.27276e-12
-1.2663e-12
3.77266e-13
-1.15178e-12
-1.03738e-12
-1.51638e-12
-1.43334e-12
1.61478e-12
3.94304e-13
-1.24961e-12
9.84901e-14
-1.9832e-12
-3.36692e-14
-1.04504e-12
-1.44341e-12
-1.18545e-12
-1.35694e-12
-1.28873e-12
-9.35661e-13
-6.59674e-13
-2.28631e-12
-1.3925e-12
-1.26286e-12
-9.1333e-13
-6.54728e-13
3.38246e-13
-1.63734e-12
-1.81631e-12
-2.16611e-12
4.32595e-13
-1.63573e-12
-1.60627e-12
-5.50805e-13
-1.91085e-12
-1.33628e-12
-1.28052e-12
9.51673e-13
1.09175e-12
2.63591e-13
1.57463e-12
-1.35559e-12
6.78299e-13
-1.96261e-12
-1.7417e-12
-1.58238e-12
-3.29436e-13
-8.98601e-13
-1.58758e-12
-2.16659e-12
-6.01007e-13
-1.93533e-12
-1.53351e-12
-8.08766e-13
-9.67517e-13
1.82533e-12
-8.85947e-13
6.69045e-13
-1.5561e-12
8.89894e-13
1.16018e-13
-1.60387e-12
-1.80723e-12
-1.90583e-12
-1.73191e-12
-1.4209e-12
1.34268e-13
-1.52901e-12
1.45425e-12
-1.00357e-12
-1.33961e-12
-9.40759e-13
-1.13146e-12
-1.31457e-12
-1.12124e-12
-1.14318e-12
-1.93732e-12
-1.54066e-12
-1.32893e-12
-9.21165e-13
-9.86383e-13
-1.53595e-12
-9.43858e-13
-1.22407e-12
-1.29471e-12
-9.31197e-13
-1.17502e-12
-1.27293e-12
-1.52674e-12
3.90682e-13
-1.0747e-12
-1.54435e-12
5.73602e-13
-1.51668e-12
-1.95155e-12
-1.357e-12
8.51735e-13
-5.55751e-13
-1.60291e-12
-9.61172e-13
-1.55647e-12
-7.03102e-13
-8.90751e-13
-1.02929e-12
1.98237e-14
-7.83165e-13
-1.35617e-12
1.31012e-12
4.45873e-13
-1.42162e-12
-1.39634e-12
3.48398e-14
-1.76476e-12
-2.06917e-12
-1.55425e-12
-1.06449e-12
-2.10547e-12
6.04324e-13
-7.52991e-13
-2.17975e-12
-7.77166e-13
-2.03739e-12
-1.28542e-12
1.00206e-13
-2.06958e-12
-1.4153e-12
-1.76344e-12
-1.71463e-12
-2.1169e-12
-9.16503e-13
-7.85588e-13
-6.53796e-13
-1.01271e-12
-1.5215e-12
-9.56503e-13
4.11908e-13
-1.44411e-12
-2.14299e-12
-1.00374e-12
-1.21418e-12
-9.85097e-13
-1.39758e-12
-6.43165e-13
-1.33004e-12
-1.05979e-12
-2.0062e-12
-2.02082e-12
-9.38835e-13
-1.69023e-12
-3.55453e-13
-2.11473e-12
1.10196e-12
-1.15329e-12
1.27534e-12
-1.46205e-12
1.17711e-12
-1.4223e-12
-1.23498e-12
1.03958e-12
-1.37878e-12
1.71131e-13
-2.04699e-12
-8.18329e-13
-1.85577e-12
-7.71062e-13
-1.98267e-12
-1.37651e-12
-1.41835e-12
-8.96444e-13
-7.56948e-13
4.34812e-13
-2.04788e-12
-1.44666e-12
3.06552e-13
1.61969e-13
-1.75812e-12
-2.15269e-12
-1.08959e-12
-1.63198e-12
-1.31853e-12
-2.24364e-12
-1.86054e-12
-4.26693e-13
-1.28301e-12
-5.67928e-13
-1.84657e-12
-8.81814e-13
-1.0957e-12
-1.52444e-12
-3.57882e-13
-4.10678e-13
-9.33883e-13
-8.61043e-13
-9.86243e-13
-1.93003e-12
-1.27119e-12
-1.8531e-12
-1.28012e-12
-1.62744e-12
-1.26634e-12
-8.73953e-13
-1.77242e-12
-8.04455e-13
2.96296e-13
-9.57367e-13
-2.32793e-13
-1.09002e-12
-8.49984e-13
-9.03393e-13
-1.40836e-12
4.53218e-13
-1.40765e-12
-1.26953e-12
-2.20757e-13
-1.20606e-12
-1.51598e-12
-8.66623e-13
-1.38761e-12
-1.06375e-12
-6.56339e-13
-2.11407e-12
-1.70629e-12
-1.67344e-12
-1.57111e-12
-1.52297e-12
-1.47891e-12
3.34563e-13
-1.56554e-12
9.85284e-13
8.27129e-13
-1.52792e-12
-1.46178e-12
-1.4671e-12
-1.62086e-12
-6.33484e-13
-7.99573e-13
-8.06083e-13
-7.68257e-13
5.31989e-13
-1.77975e-12
6.35686e-13
-2.02401e-12
-2.13073e-12
-1.69636e-12
-6.47324e-13
-1.81244e-12
-7.72717e-13
-1.00901e-12
-1.62103e-12
-1.9406e-12
-1.01841e-12
4.44227e-13
-2.15602e-12
-2.02272e-12
-1.62909e-12
-1.6217e-12
2.49606e-14
-1.59989e-12
1.34381e-13
-5.03086e-14
9.09395e-13
-9.57785e-13
-8.57901e-13
-1.49439e-12
-2.36338e-13
1.01159e-12
-4.15432e-13
-1.83933e-12
1.407e-12
1.36051e-12
9.56807e-13
-1.91175e-12
-1.50539e-12
-6.59135e-13
-1.97247e-12
-4.25351e-15
-1.768e-12
-1.02194e-12
-1.27135e-12
-2.0526e-12
-1.44177e-12
-2.04023e-12
-9.51734e-13
-1.62131e-12
-1.82618e-12
-1.57008e-12
7.3657e-13
-1.0452e-12
-1.91751e-12
-1.43387e-12
-2.12179e-12
-1.16673e-12
-6.76866e-13
6.88363e-13
-1.90688e-12
-1.60475e-12
2.20633e-13
3.40674e-13
-2.02226e-12
1.12127e-13
-1.88658e-12
-1.19247e-12
-2.80539e-13
2.17828e-13
-1.6312e-12
-1.62268e-14
-1.11279e-12
6.93955e-13
1.87029e-12
-6.06798e-13
-8.50074e-13
-1.6351e-12
-1.58345e-12
4.4485e-13
1.49004e-12
-1.13869e-12
-8.53179e-13
-4.62959e-13
-1.53708e-12
-3.19822e-13
2.48429e-13
-1.74761e-12
-9.972e-13
-4.44535e-13
-7.22857e-13
-1.0785e-13
5.4668e-13
-1.54424e-12
-1.6359e-12
7.83156e-14
-1.53586e-12
-9.12862e-13
-1.84468e-12
-5.72719e-13
-1.12627e-12
2.9487e-13
-1.75219e-12
-2.2676e-12
-1.63829e-12
2.8558e-13
2.85115e-13
-1.29668e-12
-6.4766e-13
-1.37394e-12
-8.60373e-13
1.08344e-12
-1.08002e-12
-1.26673e-12
-1.46326e-12
-1.60751e-12
-2.11537e-12
-1.47955e-12
-6.80853e-13
-1.55581e-12
-1.37782e-12
-1.03971e-12
-8.92277e-13
-2.16172e-12
-1.95688e-12
1.01328e-12
-3.0532e-13
-1.86664e-12
-1.91296e-12
-1.8553e-12
-1.9456e-12
-1.013e-12
1.00854e-12
-1.94422e-13
-8.9657e-13
-1.01843e-12
4.97342e-13
-1.02562e-12
-6.53296e-13
-1.13345e-12
-8.06341e-13
-7.9261e-13
-8.61684e-13
-1.64956e-12
-6.93332e-13
-1.32272e-12
-7.91602e-13
-1.04004e-12
-6.74964e-13
-1.49772e-12
-7.10462e-13
-1.77348e-12
-1.96276e-12
-1.14508e-12
-1.88761e-12
-1.26239e-12
-1.8785e-12
-1.54263e-12
1.74431e-12
-1.60753e-12
7.38071e-13
-1.82122e-12
-1.74126e-12
4.86189e-13
-1.66032e-12
-2.11867e-12
1.31395e-12
-1.64902e-12
-2.0098e-12
-1.70564e-12
-1.84063e-12
-1.99316e-12
6.24285e-13
1.07281e-12
1.7581e-12
-9.97346e-13
-1.84948e-12
-1.97708e-12
-1.59561e-12
-1.88642e-12
-1.98305e-12
8.71264e-13
4.11137e-15
-1.61028e-13
2.10883e-13
-1.60917e-12
-1.64072e-12
1.0804e-12
-1.71264e-12
-2.12415e-12
-1.41824e-12
-1.33678e-12
-1.80827e-12
-1.68151e-12
-8.09264e-13
-9.52271e-13
-1.02588e-12
-7.07123e-13
-9.96123e-13
-7.01385e-13
-8.12362e-13
-1.68006e-12
-8.08342e-13
-9.17713e-13
-1.10537e-12
-1.17884e-12
3.5091e-13
-1.82369e-12
-2.02147e-12
-1.02533e-12
-6.68429e-13
-6.53229e-13
-2.22822e-12