/*--------------------------------*- C++ -*----------------------------------*\
| =========                 |                                                 |
| \\      /  F ield         | OpenFOAM: The Open Source CFD Toolbox           |
|  \\    /   O peration     | Version:  2112                                  |
|   \\  /    A nd           | Website:  www.openfoam.com                      |
|    \\/     M anipulation  |                                                 |
\*---------------------------------------------------------------------------*/
FoamFile
{
    version     2.0;
    format      ascii;
    arch        "LSB;label=32;scalar=64";
    class       volScalarField;
    location    "2812";
    object      T;
}
// * * * * * * * * * * * * * * * * * * * * * * * * * * * * * * * * * * * * * //

dimensions      [0 0 0 1 0 0 0];

internalField   nonuniform List<scalar> 
296481
(
918.081
873.867
879.649
892.101
873.315
875.17
874.473
922.385
893.662
890.178
911.036
896.854
905.941
911.996
875.548
884.798
874.389
874.269
873.908
895.036
897.35
874.283
915.681
891.233
874.349
873.917
875.027
905.244
913.824
874.212
875.111
874.331
874.762
884.524
874.359
912.224
874.224
918.573
896.227
877.09
873.77
885.373
875.177
909.005
873.847
876.502
873.482
874.272
874.627
874.319
874.108
879.717
920.302
891.294
873.501
921.894
874.093
875.476
874.177
874.192
873.493
875.339
883.303
879.933
874.179
874.174
901.368
874.231
873.876
874.2
874.271
898.267
920.716
882.133
882.922
873.697
874.644
894.66
873.903
883.397
915.85
874.44
909.453
873.388
873.903
913.388
910.299
918.51
876.532
916.669
903.016
885.808
873.41
874.447
922.43
909.75
874.444
875.469
876.698
874.268
874.243
874.892
875.308
874.454
875.411
874.716
874.102
897.825
914.573
883.555
915.184
882.501
885.733
880.279
894.325
918.831
875.039
875.041
873.727
894.501
914.994
873.407
902.038
900.417
874.766
875.671
874.746
875.557
880.231
874.736
874.426
874.976
921.903
875.113
873.788
917.34
874.528
883.354
884.473
874.393
900.81
873.798
899.151
887.356
900.289
873.834
875.234
874.281
874.976
911.24
874.163
899.098
880.598
910.068
917.753
920.366
902.887
874.606
888.278
884.291
891.919
874.372
875.216
915.851
897.941
874.301
874.514
876.146
874.566
888.48
874.474
874.535
874.224
892.245
921.267
874.647
873.875
908.652
921.877
889.092
901.11
874.656
874.474
874.266
875.691
873.828
916.288
873.774
875.222
922.629
921.566
891.482
873.662
878.648
874.387
874.409
880.288
874.531
884.833
917.351
881.195
875.341
876.564
875.874
873.727
874.615
874.221
874.055
874.562
922.288
902.802
874.202
873.745
920.55
874.329
917.997
892.308
874.163
897.451
897.232
881.342
876.556
888.518
874.309
921.682
874.032
874.844
874.734
874.33
919.366
875.033
912.485
913.564
874.555
875.699
913.747
873.711
916.827
903.559
874.361
874.494
922.392
881.856
874.957
874.176
883.745
921.653
898.551
919.444
921.609
904.205
874.617
914.364
874.703
874.756
873.553
921.833
875.641
885.606
885.376
897.545
874.82
874.344
874.544
874.665
874.417
897.634
892.512
882.748
906.384
909.364
874.795
885.423
874.389
874.878
910.368
910.907
874.718
913.44
920.083
875.014
910.065
873.818
899.072
874.65
910.709
873.761
879.905
904.054
874.575
874.341
886.57
874.969
894.81
878.606
922.053
918.765
874.678
876.217
874.543
918.015
916.603
874.995
875.077
874.622
874.495
916.067
874.179
878.151
883.281
874.169
874.298
895.178
874.645
874.617
875.182
875.324
874.726
874.146
874.263
885.292
890.2
874.206
909.166
910.37
873.985
909.927
917.595
889.546
874.21
886.326
874.584
874.243
913.122
907.099
881.901
909.148
874.802
912.361
873.595
874.176
915.861
890.921
875.017
894.234
891.076
920.745
879.472
874.001
874.201
875.804
917.967
898.601
874.169
880.46
874.746
874.206
918.617
873.939
882.788
875.627
873.461
899.478
875.548
874.32
917.056
874.706
873.881
874.191
913.835
911.493
875.466
873.539
874.126
873.66
874.557
891.079
913.858
895.142
875.029
892.603
874.294
874.007
874.635
904.769
873.539
893.104
874.162
873.553
874.34
922.403
874.847
874.342
880.888
876.248
914.068
896.006
909.443
873.765
878.03
874.637
874.097
873.735
879.163
875.574
874.381
874.207
874.16
879.369
874.191
874.22
874.614
922.019
874.068
884.309
894.784
875.104
874.545
908.954
901.14
874.579
874.413
874.621
874.459
874.386
873.63
904.874
874.616
877.238
874.602
874.535
908.173
874.573
921.188
890.702
873.832
911.264
873.962
897.515
876.299
906.519
884.095
902.693
881.444
874.562
873.601
874.408
876.271
874.197
909.3
874.366
877.483
876.499
912.964
873.365
922.108
877.564
874.523
875.492
874.195
874.827
873.932
911.812
903.729
893.899
889.845
874.748
916.82
875.07
918.942
907.085
876.004
914.905
873.51
885.87
889.715
908.181
875.174
874.039
876.69
922.164
876.454
881.54
874.36
874.753
876.48
875.737
874.709
874.503
883.832
876.376
911.168
875.292
875.308
922.467
894.082
875.222
874.595
874.572
920.295
873.645
888.232
875.611
922.52
877.093
892.063
874.506
902.116
890.15
874.988
892.145
899.761
914.467
893.918
873.549
899.025
874.226
874.466
875.354
875.144
873.44
876.805
874.587
875.039
874.244
874.283
874.407
897.559
874.236
875.29
902.874
873.713
915.929
909.292
874.307
874.359
922.491
875.346
874.883
908.854
874.951
913.482
877.621
874.297
875.13
874.119
874.309
874.289
912.342
918.624
906.881
874.909
873.334
874.524
874.257
875.524
922.308
919.189
873.739
877.783
922.459
875.468
874.968
874.729
905.802
879.595
886.264
911.568
921.495
874.839
873.828
874.534
874.702
874.86
874.308
890.302
880.824
917.872
915.688
877.046
874.379
875.069
875.391
875.068
875.351
920.872
875.228
874.198
873.708
875.306
875.049
877.11
873.793
880.111
873.648
875.023
875.091
873.822
922.294
918.127
874.433
875.071
876.022
874.876
914.014
874.83
874.319
873.76
889.252
911.745
895.963
886.789
902.854
874.372
874.225
874.752
914.773
875.052
878.087
895.687
873.958
874.931
908.557
892.432
879.321
922.503
874.973
874.71
920.537
899.926
875.155
917.448
874.556
874.011
912.657
873.895
874.373
890.99
874.683
893.779
874.835
874.566
875.154
874.62
915.963
874.883
874.419
918.143
921.603
873.954
874.31
895.433
897.679
874.822
874.311
874.205
874.546
882.606
888.888
911.337
875.003
903.995
920.196
910.921
874.602
916.761
921.022
905.257
913.843
879.686
915.639
884.553
874.429
874.288
874.406
874.3
874.72
873.734
896.291
874.276
892.45
873.494
912.77
874.672
895.585
893.323
878.794
895.747
897.816
874.268
873.709
874.632
874.087
873.688
874.503
916.019
894.611
886.275
907.01
873.707
874.269
874.227
874.583
873.874
910.516
873.996
921.397
873.592
876.058
877.014
897.48
874.804
915.204
873.737
873.583
916.156
874.701
874.832
903.953
874.467
874.183
874.134
874.362
874.203
874.049
875.08
874.687
875.964
874.954
874.459
893.645
922.099
891.893
921.749
874.18
874.15
910.024
906.303
914.969
874.197
884.381
909.065
873.776
920.758
873.91
879.648
874.173
874.148
874.462
873.964
874.013
874.135
874.186
873.777
874.149
874.14
874.186
874.356
876.49
874.165
918.24
917.619
874.611
873.988
888.89
875.034
913.354
876.15
884.404
905.851
874.126
922.358
874.169
875.007
875.97
905
873.957
873.833
914.181
874.691
914.391
873.974
874.913
913.522
917.475
912.548
874.004
873.963
873.702
874.004
875.353
873.791
873.631
921.475
880.266
874.568
913.493
917.623
873.441
874.218
873.807
874.176
910.336
896.822
874.106
876.083
874.845
874.815
873.656
873.558
873.76
883.99
920.404
906.041
874.2
877.114
875.925
873.673
875.374
873.978
875.738
874.497
876.72
917.647
878.114
909.572
873.608
877.832
912.285
873.631
906.766
874.286
873.993
873.738
878.389
873.781
874.604
873.432
908.428
883.478
874.09
875.479
873.978
874.546
880.177
873.92
917.62
873.769
892.982
874.2
899.498
873.75
873.629
878.043
874.543
873.68
873.783
894.765
917.942
906.106
876.346
873.508
877.289
882.967
895.757
874.612
874.312
873.535
874.139
900.185
873.662
873.656
873.625
873.7
876.372
901.733
874.497
884.456
873.686
921.891
875.175
893.694
873.604
875.774
874.57
873.71
874.276
922.154
874.041
873.362
875.764
875.723
875.837
885.058
874.966
874.37
908.596
914.496
887.718
913.323
873.473
873.631
922.218
922.326
874.724
898.672
874.502
876.853
873.692
907.584
893.468
880.151
920.292
873.646
873.678
875.374
873.75
873.836
884.881
915.52
874.348
873.763
873.736
874.295
881.632
873.853
873.79
873.81
873.99
875.37
893.624
873.797
873.699
875.406
876.126
874.724
875.65
873.944
873.618
873.729
912.798
881.959
873.691
875.924
905.22
882.731
873.723
881.932
873.357
873.473
873.38
873.41
873.757
874.345
874.007
908.089
892.624
873.731
873.709
873.65
875.058
873.671
921.748
873.654
873.764
873.829
873.706
878.204
873.97
895.636
913.097
874.854
874.374
874.507
921.191
912.963
874.012
875.226
918.517
875.399
874.993
874.274
911.838
905.34
898.724
876.024
915.724
874.374
889.653
922.248
874.93
877.285
909.681
874.185
874.644
874.966
905.69
880.535
875.279
916.885
874.276
920.975
874.242
879.944
873.845
900.549
892.924
874.086
874.241
874.818
873.716
874.62
874.276
875.599
875.766
914.861
913.11
875.086
875.128
874.92
874.919
873.289
875.329
876.789
874.306
874.271
886.163
874.868
874.813
874.611
875.474
877.296
874.181
873.383
897.766
878.818
873.701
873.929
882.027
873.777
873.71
889.01
873.621
874.312
873.763
903.439
874.344
906.736
879.386
875.166
873.875
882.846
874.617
904.694
874.458
886.347
875.738
900.053
878.054
874.281
873.768
921.58
873.758
891.594
873.567
874.157
874.195
919.331
899.459
894.818
874.927
873.845
874.875
874.693
906.129
896.564
875.33
882.378
873.803
894.905
883.264
874.366
873.901
922.237
873.914
874.061
874.741
876.526
909.174
900.665
874.391
908.641
905.976
921.991
873.718
899.752
873.706
873.681
875.931
913.935
875.408
873.782
906.085
908.413
907.995
913.637
877.705
875.094
875.303
873.742
873.397
875.478
874.969
883.215
888.35
874.684
873.555
912.305
885.329
873.765
910.813
913.473
873.684
873.81
873.571
888.046
909.163
911.187
918.801
874.051
879.292
873.529
873.493
874.172
881.192
918.064
876.563
873.676
873.756
874.645
875.478
920.041
874.026
873.464
874.645
874.395
874.201
873.498
894.099
894.937
913.693
903.513
873.498
873.455
873.474
873.756
905.17
873.948
888.717
874.635
907.959
915.948
873.536
873.442
894.842
876.224
873.456
873.602
873.473
873.756
873.461
921.552
874.781
873.764
873.477
910.459
875.746
873.722
894.89
875.898
921.098
873.987
873.361
875.036
873.547
911.479
873.604
873.469
880.124
874.235
894.546
910.324
875.065
874.01
874.471
873.784
875.285
873.604
874.422
873.776
900.592
901.972
913.368
874.599
898.398
922.323
884.366
874.302
874.855
884.648
873.748
873.605
875.352
873.82
876.935
874.002
874.666
873.577
873.493
874.119
874.422
874.048
874.387
876.692
874.786
875.683
873.569
885.059
877.758
874.664
883.203
874.225
874.437
879.676
873.705
885.94
873.675
874
918.922
873.849
913.899
888.939
873.663
916.607
873.639
920.229
873.552
874.037
873.592
874.692
882.185
886.686
874.499
873.845
873.421
900.006
874.696
917.38
884.203
874.788
874.264
876.905
875.535
878.255
873.481
873.502
873.738
874.984
873.424
918.233
876.906
873.601
894.431
873.683
873.584
874.828
873.725
874.193
873.564
877.619
875.006
873.589
873.384
918.665
873.543
873.775
876.671
873.404
898.261
882.658
921.757
873.419
874.516
873.522
873.489
873.705
873.446
873.438
873.736
873.804
874.36
878.881
875.08
888.774
873.782
874.113
921.089
873.592
887.522
873.562
899.846
873.755
876.734
874.56
906.811
888.988
922.021
908.752
889.311
881.895
884.426
874.049
873.66
885.411
873.535
893.596
873.432
876.02
874.408
907.751
907.114
874.332
875.92
873.613
873.966
889.41
873.302
901.497
874.709
873.423
873.511
922.213
874.397
873.589
874.389
873.543
873.533
873.571
875.061
873.677
874.93
874.248
873.399
873.51
917.326
877.633
874.629
874.34
876.075
875.697
875.053
873.382
873.42
873.423
875.218
873.906
874.046
873.632
874.99
874.957
922.402
874.07
873.415
873.38
873.372
922.283
905.658
874.088
874.267
873.42
873.479
875.319
897.45
907.297
873.513
874.904
873.429
876.218
873.573
873.878
905.833
873.446
873.957
892.29
909.012
874.838
910.28
877.621
922.453
898.318
875.018
886.953
915.627
874.227
874.145
873.419
873.384
897.961
877.973
873.591
900.452
873.43
873.556
881.582
874.029
874.07
874.173
884.304
891.082
873.684
918.326
873.545
880.028
880.446
873.465
874.282
891.639
874.394
890.99
874.251
874.15
873.734
874.338
874.154
873.403
912.866
875.051
873.423
873.848
874.381
922.173
873.341
874.702
874.541
873.741
881.533
873.44
903.676
890.141
874.664
874.094
873.513
873.582
883.53
873.58
874.515
874.155
873.64
874.415
874.364
876.956
920.367
877.214
874.19
892.027
886.863
874.765
895.437
888.919
882.687
912.939
908.83
918.424
922.494
902.632
874.098
894.47
903.59
874.351
886.988
880.45
873.453
920.8
920.202
874.371
873.699
874.668
873.63
907.322
874.182
873.353
873.626
874.276
873.992
922.261
885.002
873.456
922.194
874.432
874.027
873.537
878.235
908.024
887.775
908.924
874.035
873.869
891.517
883.887
874.124
921.996
874.059
874.109
874.716
880.898
922.556
873.488
873.517
874.014
873.471
874.235
894.465
920.108
873.475
885.984
873.417
875.05
874.235
916.44
875.026
875.089
881.019
914.906
873.445
897.878
876.135
914.492
873.611
873.91
874.129
873.419
874.123
873.477
874.273
873.744
873.429
874.172
873.745
874.041
873.487
873.833
873.656
874.049
873.497
915.411
873.683
874.823
873.73
874.021
879.614
873.978
874.456
873.675
909.234
878.79
873.334
873.425
873.787
873.457
873.811
873.557
885.335
891.945
873.719
914.806
915.287
874.151
896.494
874.477
910.764
875.501
874.02
873.836
892.139
874.379
873.636
874.302
874.353
873.822
874.742
873.523
878.002
875.016
874.446
873.533
876.325
874.602
879.365
874.276
874.278
920.94
875.032
891.551
913.013
889.601
874.86
898.391
884.587
893.168
874.099
873.559
874.123
917.348
921.479
873.656
920.59
917.526
911.941
891.967
874.971
873.804
874.248
874.441
873.551
884.665
876.375
873.466
907.681
874.271
919.599
873.498
920.203
875.454
874.288
875.126
874.311
875.085
878.158
912.892
877.974
874.848
873.865
874.291
873.568
874.361
873.512
874.568
921.625
874.85
911.279
884.725
904.532
900.011
891.52
895.949
922.179
873.415
876.848
886.288
874.056
922.369
874.233
873.876
874.023
873.558
877.201
874.543
874.47
873.889
873.845
873.415
873.49
873.512
911.084
873.47
889.837
873.521
916.636
873.515
873.368
910.952
920.61
873.528
874.319
912.744
873.481
922.001
915.467
874.771
874.853
896.256
873.676
874.001
875.279
873.655
874.016
874.002
894.809
899.672
873.452
873.983
873.663
873.794
879.319
882.874
917.819
873.682
873.691
892.612
874.081
874.586
874.363
880.183
873.77
874.243
921.36
874.055
873.614
873.776
874.063
873.362
873.83
920.548
916.646
875.087
891.555
904.617
920.857
873.714
874.271
874.741
873.784
873.842
874.142
873.829
874.434
874.01
874.129
873.874
873.775
916.079
874.29
873.858
874.026
900.387
874.918
876.945
873.779
873.717
873.894
873.819
875.595
873.803
873.824
874.799
903.523
873.473
873.7
873.802
873.666
873.649
873.524
873.493
873.662
874.032
873.854
873.614
911.672
873.462
873.795
875.028
873.928
922.38
873.783
922.095
921.575
873.85
873.858
873.847
873.97
873.906
873.88
904.81
921.875
874.781
873.896
878.568
873.378
873.455
918.986
921.479
873.902
873.947
873.906
875.363
873.787
874.352
873.886
905.275
904.385
873.371
873.83
873.909
900.508
873.789
874.369
873.903
873.969
875.722
873.424
917.772
874.022
918.09
874.235
873.733
915.695
873.86
896.581
878.701
880.569
873.871
873.657
874.123
892.634
874.054
873.973
917.576
878.502
875.717
873.915
915.712
873.868
912.005
900.133
873.863
921.618
873.88
873.821
873.727
873.99
873.412
873.541
910.924
873.716
874.44
873.886
874.103
873.68
873.914
922.427
874.247
873.573
874.497
873.916
920.439
914.563
873.903
902.814
874.797
899.281
873.685
873.977
874.055
873.981
874.998
875.724
873.821
874.91
875.134
874.091
873.921
879.716
908.588
874.427
874.316
874.994
914.101
874.398
874.418
887.557
876.977
873.845
873.892
920.036
917.284
906.493
919.827
873.93
919.562
874.424
874.339
873.925
895.41
880.326
873.931
875.386
886.512
875.563
873.944
873.792
873.704
922.496
879.537
918.152
874.71
921.789
902.003
873.957
874.734
874.373
874.37
875.205
906.392
880.373
921.74
882.657
874.867
873.294
874.13
874.279
873.445
873.404
876.866
879.787
874.026
873.787
873.356
874.005
873.535
874.357
874.265
874.304
873.499
873.866
874.067
920.125
873.529
874.044
908.188
874.778
876.637
873.977
922.425
890.111
875.415
873.771
873.998
873.323
873.701
874.053
899.763
873.729
874.043
916.693
911.898
874.317
873.985
900.474
874.484
875.604
873.977
873.482
875.446
917.87
874.439
875.275
873.463
874.696
873.982
902.627
875.579
874.222
874.954
874.275
874.552
873.324
873.486
873.491
873.419
874.187
873.396
915.194
874.137
874.904
873.413
874.27
877.787
874.258
879.83
874.099
873.565
874.61
874.663
877.532
874.557
894.855
874.804
919.161
873.852
919.174
874.709
918.552
874.382
873.919
922.167
874.007
905.248
874.5
873.32
874.675
889.598
875.088
874.598
875.649
873.448
873.397
906.085
874.924
874.384
922.296
903.255
874.507
875.343
877.459
874.025
874.51
875.338
874.569
890.298
874.12
891.692
874.719
874.878
874.467
874.076
892.243
873.355
881.284
874.107
874.824
874.203
873.423
874.627
876.365
874.08
875.927
874.267
873.969
878.75
906.174
874.024
894.363
873.505
875.939
876.492
874.125
909.74
881.646
884.015
894.584
873.685
873.998
882.453
873.928
873.565
885.776
874.465
874.633
874.356
874.924
874.32
874.229
908.99
874.192
920.058
916.054
873.956
874.289
873.96
874.27
874.113
877.042
873.401
873.66
914.485
874.198
922.122
874.922
875.207
874.035
873.514
874.533
873.697
873.965
874.818
874.582
878.817
907.588
875.123
874.706
874.575
874.472
901.523
874.349
904.378
899.959
917.19
873.941
873.675
878.935
896.808
921.697
891.759
874.502
918.796
917.277
921.717
874.224
874.288
883.139
875.958
899.431
874.456
874.068
874.149
875.465
874.059
874.491
873.836
874.184
874.95
874.565
917.438
873.516
874.421
874.622
875.779
883.244
873.902
915.482
876.227
874.925
903.878
914.175
875.482
903.278
874.93
874.555
873.736
907.093
874.394
899.13
873.598
916.513
922.418
874.644
880.998
874.357
874.587
907.597
921.544
874.516
873.809
893.31
874.547
874.101
910.523
874.14
873.942
873.715
877.159
897.181
917.274
874.47
874.02
902.515
874.443
873.76
874.058
873.674
873.781
906.47
875.383
875.087
874.498
904.117
907.275
874.031
873.778
874.117
888.127
914.524
874.227
874.263
874.239
874.015
875.293
874.004
873.432
874.057
882.171
873.68
873.519
875.126
874.258
922.435
873.476
873.995
875.091
874.064
874.062
873.936
914.69
895.264
873.867
873.787
915.242
873.706
873.692
874.083
873.736
879.695
874.508
878.942
889.468
874.428
874.268
873.863
873.715
874.342
890.087
874.479
875.356
873.887
876.284
873.89
875.102
874.502
921.762
874.143
915.78
874.813
874.025
907.525
874.346
875.699
919.084
874.151
874.391
874.447
875.101
874.799
922.335
913.733
921.92
877.354
874.41
874.998
874.13
874.595
874.771
913.993
900.34
896.146
902.966
874.551
874.795
922.527
874.01
875.078
874.004
876.93
874.921
874.144
873.45
873.604
873.809
873.841
873.85
873.734
873.421
874.121
874.198
873.943
873.437
873.877
909.805
874.431
875.61
873.577
873.815
873.596
875.271
874.065
874.86
873.901
874.064
873.911
896.864
874.854
874.412
873.945
874.331
909.37
876.096
873.646
875.627
873.902
874.932
873.333
874.318
922.299
873.357
873.433
900.769
873.667
873.468
874.091
873.563
873.707
891.271
875.334
873.428
874.503
874.793
874.58
874.265
908.044
874.57
894.529
873.454
874.086
873.708
916.848
874.518
874.85
894.023
874.026
873.867
915.308
874.981
909.376
873.777
873.56
873.456
919.958
880.215
873.658
912.103
873.464
874.132
912.448
874.471
873.942
873.771
874.203
874.514
873.553
874.417
874.216
874.427
874.485
874.064
874.853
874.456
874.961
915.905
875.247
874.399
894.725
874.176
874.367
892.744
874.069
874.116
873.641
876.32
874.263
877.486
874.405
874.049
874.61
873.848
874.082
874.133
873.956
874.839
908.449
873.972
874.36
874.011
874.151
907.056
889.601
874.307
873.861
878.735
874.759
876.425
918.658
897.98
896.103
902.955
873.732
873.638
873.966
873.716
873.434
873.68
875.142
912.584
874.576
873.412
889.526
873.395
874.526
920.686
894.786
874.306
873.722
905.786
873.821
873.376
873.755
873.974
873.332
884.16
874.099
918.155
874.495
881.643
882.096
873.819
873.479
873.733
873.693
876.84
874.026
874.213
893.609
874.263
918.346
873.773
874.43
917.369
921.211
874.142
874.239
873.457
910.453
914.846
903.176
916.563
888.277
876.613
893.699
873.695
904.765
883.947
920.388
887.585
873.845
921.6
874.445
874.42
874.187
875.092
874.15
875.605
918.344
874.387
874.495
874.565
874.536
874.402
875.161
874.248
874.277
874.411
910.035
874.29
874.7
882.452
878.358
874.153
874.392
874.262
874.004
875.192
874.41
875
874.112
920.782
921.139
874.01
874.095
873.822
876.843
909.196
883.055
874.009
874.029
875.032
874.049
874.326
874.027
874.003
873.762
875.097
874.406
874.282
874.261
874.196
874.329
874.21
873.574
874.257
873.418
873.992
879.104
874.641
873.88
874.112
874.889
874.341
874.024
874.041
892.282
874.05
873.963
874.569
874.551
874.756
874.151
898.378
873.518
905.925
873.593
873.353
873.763
882.546
874.461
874.068
921.997
897.519
874.826
907.348
878.758
874.197
902.309
874.056
912.215
874.82
874.334
873.365
921.756
874.297
874.138
886.395
907.335
874.189
880.965
874.959
874.411
909.54
887.297
912.108
874.93
878.505
874.55
884.23
874.811
874.341
874.369
876.774
874.283
900.212
873.861
873.98
879.878
874.323
874.017
873.349
902.634
873.755
873.771
874.656
874.589
874.488
875.037
873.938
877.659
874.015
873.822
874.121
873.458
873.43
873.589
875.125
876.361
878.014
873.441
873.912
873.721
873.996
882.986
909.025
876.1
917.834
874.114
875.123
874.109
874.057
908.566
874.001
873.516
908.319
873.926
873.725
874.098
921.536
874.003
884.47
873.959
873.85
873.78
874.049
874.203
874.18
882.308
877.57
877.895
874.839
877.456
875.093
874.505
874.182
873.886
874.233
874.248
874.699
876.608
910.561
874.453
873.843
874.773
873.471
874.446
911.098
915.225
908.819
912.489
876.115
873.978
873.795
904.218
877.791
916.453
873.487
874.552
899.008
905.372
919.037
906.456
873.963
909.569
874.6
874.462
874.353
875.858
874.831
873.973
881.453
874.62
900.489
875.078
874.156
881.884
874.287
874.529
874.015
874.638
873.987
874.23
874.361
888.822
878.554
894.132
874.184
874.651
900.477
874.11
882.969
884.388
879.988
874.549
874.197
874.087
874.574
873.947
874.53
874.637
920.713
873.964
913.978
874.523
875.228
874.905
874.414
916.276
873.875
874.389
873.474
874.831
921.005
874.287
876.23
914.028
873.886
873.737
875.05
874.335
873.96
873.717
916.056
873.707
874.903
874.014
874.115
875.217
875.704
874.348
877.9
873.998
874.679
874.432
874.074
874.619
873.415
873.745
920.559
873.762
873.686
874.032
873.707
912.543
881.796
873.663
918.14
874.548
917.565
873.411
873.882
874.093
922.448
879.541
874.633
885.968
874.256
905.008
874.163
874.963
874.346
877.259
921.989
904.694
921.508
882.875
873.911
873.885
873.966
899.277
874.09
888.512
919.488
873.953
888.352
907.142
899.578
873.493
873.627
874.007
873.814
883.386
873.398
873.928
915.037
873.68
873.403
873.745
873.974
874.111
873.91
873.72
914.995
918.425
875.871
873.823
874.432
878.865
873.754
874.37
873.924
920.889
876.522
874.776
875.338
873.403
873.662
873.395
873.747
873.75
906.913
874.709
875.137
915.481
873.763
874.464
884.174
876.054
873.642
910.492
873.859
873.474
906.804
873.477
874.7
900.359
873.513
873.704
920.216
874.131
874.041
873.402
910.124
873.654
874.135
873.535
874.121
873.994
875.703
873.875
884.57
918.516
874.466
873.632
874.628
874.542
898.347
873.509
873.544
916.071
911.859
874.393
917.445
921.338
874.085
874.834
874.739
877.895
874.627
920.897
874.748
874.595
873.568
873.915
874.448
874.011
874.458
874.702
873.934
873.566
921.87
879.118
895.716
873.664
922.334
874.979
874.518
875.092
873.825
891.55
873.764
874.588
902.115
874.512
874.334
874.601
874.483
873.438
874.728
873.402
874.394
874.341
873.395
873.39
922.041
874.537
873.425
873.679
917.262
875.959
922.226
921.478
874.184
873.823
873.581
875.012
874.762
874.578
873.462
873.91
873.404
873.881
875.239
893.437
878.092
873.676
873.806
911.312
874.153
920.894
873.47
875.634
875.94
874.546
873.831
873.99
874.857
873.411
874.397
873.665
896.445
873.755
879.171
873.317
873.863
873.782
873.737
873.77
874.162
877.024
876.056
893.831
907.203
916.852
873.839
873.715
909.464
887.611
873.72
883.105
873.667
874.424
874.33
915.431
874.65
873.472
874.765
902.152
899.027
873.73
873.709
873.766
873.911
873.558
873.761
906.762
915.916
873.766
922.169
920.915
873.796
894.502
919.217
881.913
873.501
921.375
917.628
878.034
873.487
915.221
901.337
904.861
879.772
874.435
873.542
873.866
873.853
873.694
874.367
911.611
913.953
873.42
876.171
874.038
873.862
873.93
873.43
912.53
873.447
873.458
873.976
873.739
873.666
873.414
873.867
873.661
873.426
874.117
873.562
873.427
874.021
873.408
873.449
873.99
874.187
874.061
874.263
874.149
873.968
873.438
873.803
873.849
873.404
873.686
873.633
873.417
874.257
874.85
873.776
874.008
873.938
874.58
873.401
888.993
874.303
909.456
874.157
873.474
880.846
873.977
873.42
874.557
874.175
878.303
907.379
921.819
874.977
873.508
874.668
886.24
874.111
874.265
874.259
873.829
906.39
873.858
873.684
873.775
873.723
873.977
874.231
873.469
873.752
873.786
874.135
874.725
873.63
873.487
908.946
874.216
873.468
873.482
874.735
894.631
874.018
874.68
908.797
874.661
899.487
873.524
874.053
874.001
874.257
874.125
874.034
873.637
873.89
901.743
873.881
874.489
873.696
873.643
873.402
873.649
873.598
873.627
878.002
874.309
873.569
873.792
873.671
873.809
873.664
874.155
873.781
875.476
873.585
889.063
880.566
874.002
873.511
874.801
873.56
909.834
895.789
890.619
874.214
873.412
873.6
873.871
879.658
874.669
880.722
874.523
873.596
914.066
916.811
874.543
873.627
903.553
903.606
873.925
873.762
909.387
922.244
901.624
922.2
873.771
912.536
905.579
876.81
873.351
876.48
873.425
873.716
873.673
873.656
873.703
873.757
873.453
874.017
873.787
875.009
874.18
901.592
874.295
874.701
873.811
922.521
875.099
874.201
874.382
873.47
875.147
873.463
873.725
920.829
913.467
874.568
881.776
918.836
916.469
873.976
913.946
873.734
920.42
877.32
873.751
875.05
873.665
875.714
875.407
874.049
873.516
875.19
898.892
910.636
874.49
874.154
874.078
873.543
874.46
873.547
875.231
888.76
874.26
874.413
873.652
874.434
874.455
873.778
918.294
873.465
873.937
873.494
921.525
874.564
921.975
907.783
918.36
874.047
874.042
874.043
899.203
895.652
875.582
874.436
921.779
875.107
884.07
873.683
882.56
873.939
878.09
873.701
873.501
873.404
873.579
873.573
873.446
873.342
873.751
873.418
873.552
876.041
873.815
875.037
874.633
873.423
873.459
873.74
875.238
873.928
874.745
873.985
874.21
874.277
873.419
874.047
874.1
873.632
874.229
873.755
878.291
883.041
911.6
873.448
874.186
874.474
874.341
874.843
874.271
875.056
874.834
874.129
874.599
874.391
873.505
874.373
874.4
874.52
874.463
874.006
874.946
874.19
912.288
874.95
873.49
874.45
874.58
873.936
874.275
874.177
874.365
876.523
873.422
874.292
873.995
873.53
876.411
873.725
874.236
873.55
873.989
874.27
873.584
873.857
873.968
874.23
874.046
874.032
874.272
873.992
875.364
874.432
873.997
911.915
921.913
874.299
873.461
873.947
914.958
874.653
914.024
873.863
874.353
874.304
915.183
903.868
873.958
900.351
883.592
905.821
873.408
873.421
900.615
874.319
874.042
875.114
874.221
903.761
874.665
874.011
875.043
874.401
873.417
874.571
874.665
874.456
874.533
874.151
915.997
917.478
922.338
873.509
873.488
874.546
874.142
874.582
874.045
874.739
873.722
873.778
874.073
873.706
875.76
873.355
873.477
874.664
873.84
873.47
873.471
873.973
873.477
874.571
874.146
874.035
874.385
874.259
874.487
874.642
874.515
874.276
874.249
883.338
877.344
873.509
906.916
873.795
873.46
873.971
874.51
873.781
874.228
874.039
875.884
874.448
873.76
873.479
873.895
874.733
873.825
874.165
874.158
874.402
874.013
874.102
873.693
873.967
873.691
873.949
874.233
875.101
873.814
873.567
873.991
873.709
874.691
903.119
915.309
874.225
891.7
876.425
873.662
918.364
875.772
884.693
875.36
880.11
874.372
873.973
873.368
874.588
873.603
874.238
874.047
874.475
874.303
874.063
873.682
873.952
873.782
874.079
874.734
874.283
873.66
873.674
873.683
878.371
874.44
873.668
873.662
918.387
917.648
908.007
874.348
874.485
873.824
875.109
873.647
874.411
874.801
873.792
873.836
873.856
873.872
873.631
873.786
874.309
874.257
875.041
882.877
874.198
873.661
873.613
902.547
873.879
873.91
899.576
875.354
874.159
874.16
873.912
874.892
892.537
874.295
874.403
873.768
874.635
874.029
876.506
909.538
882.985
874.773
908.664
874.556
873.772
921.667
911.339
900.182
874.893
921.472
897.627
875.189
874.39
921.033
910.997
877.287
899.178
873.969
883.988
913.421
899.638
874.557
876.897
919.63
899.261
920.842
885.289
910.278
874.185
903.037
874.403
874.163
922.366
914.379
900.601
873.905
900.861
880.428
895.993
889.478
905.974
873.745
913.125
878.081
875.005
886.954
916.034
873.783
878.386
921.041
873.464
873.763
873.82
873.483
920.001
873.989
880.566
879.35
907.429
873.939
877.135
874.752
917.312
921.882
905.32
890.02
874.273
873.854
874.611
916.026
896.332
913.74
905.276
873.633
922.064
874.06
894.155
875.247
902.114
874.035
873.65
874.951
885.215
873.691
916.976
873.71
873.646
873.975
874.846
920.607
913.654
882.677
874.504
875.14
880.083
873.668
873.482
874.274
874.303
892.274
873.588
873.626
893.216
902.074
880.953
873.496
896.074
901.968
873.568
910.822
916.702
909.37
895.199
890.77
874.567
873.611
874.566
904.86
913.618
875.75
890.987
910.43
873.934
906.168
877.048
880.819
874.728
873.603
885.325
874.586
922.43
873.559
891.486
877.085
874.637
904.433
873.598
898.747
878.564
874.927
874.805
905.667
873.76
873.867
907.045
873.809
903.348
873.885
873.943
875.276
873.843
883.639
917.814
919.041
913.248
881.269
883.883
875.319
874.072
915.627
873.835
889.539
888.246
874.317
913.895
881.624
874.61
888.279
873.895
910.428
915.397
874.236
873.926
873.937
873.803
873.568
877.106
873.9
875.068
873.901
920.27
876.796
921.896
906.342
881.098
874.061
921.383
874.108
903.404
873.852
899.832
873.481
921.912
875.193
901.601
922.001
874.827
874.189
895.536
920.134
873.836
877.359
906.551
874.162
873.83